                         Program Version 4.0.1.2 - RELEASE -
|  1> ! MP2 6-311G(d) Opt NoFrozenCore ExtremeSCF
|  2>
|  3> %geom
|  4>  MaxIter 1
|  5>  inhess unit
|  6>  MaxStep 0.01
|  7>  Convergence tight
|  8>  Trust 0.1
|  9> end
| 10>
| 11> %mp2 MaxCore 5000
| 12> end
| 13>
| 14> *xyzfile -1 1 inp.xyz
| 15>
| 16>                          ****END OF INPUT****

CARTESIAN COORDINATES (ANGSTROEM)
---------------------------------
  C     -0.276590   -0.124358   -0.175018
  C     -0.227144   -0.095026    1.189805
  Cl     2.170842    0.138938   -0.998543
  Cl    -3.126532    0.437407    1.592090
  H     -1.710840    0.096954    1.236649
  H     -0.339325    0.831221   -0.684677
  H     -0.155016   -1.046593    1.719665
  C     -0.682447   -1.333239   -0.948158
  H     -0.235991   -1.307038   -1.940624
  H     -0.361470   -2.246933   -0.445163
  H     -1.775710   -1.352576   -1.048851
  N      0.298982    1.042599    1.895432
  H     -0.407383    1.759609    2.013201
  H      1.055271    1.413186    1.326439

 Total Charge           Charge          ....   -1
 Multiplicity           Mult            ....    1
 Number of Electrons    NEL             ....   68
 Basis Dimension        Dim             ....  148

ORBITAL ENERGIES
----------------

  NO   OCC          E(Eh)            E(eV)
   0   2.0000    -104.650305     -2847.6796
   1   2.0000    -104.557894     -2845.1649
   2   2.0000     -15.412532      -419.3963
   3   2.0000     -11.165972      -303.8415
   4   2.0000     -11.119565      -302.5787
   5   2.0000     -11.117883      -302.5330
   6   2.0000     -10.377057      -282.3741
   7   2.0000     -10.284019      -279.8424
   8   2.0000      -7.844855      -213.4694
   9   2.0000      -7.842978      -213.4183
  10   2.0000      -7.842971      -213.4181
  11   2.0000      -7.751032      -210.9163
  12   2.0000      -7.750645      -210.9058
  13   2.0000      -7.750597      -210.9045
  14   2.0000      -1.067979       -29.0612
  15   2.0000      -0.948445       -25.8085
  16   2.0000      -0.909134       -24.7388
  17   2.0000      -0.805106       -21.9080
  18   2.0000      -0.797110       -21.6905
  19   2.0000      -0.657708       -17.8971
  20   2.0000      -0.542864       -14.7721
  21   2.0000      -0.525199       -14.2914
  22   2.0000      -0.492880       -13.4119
  23   2.0000      -0.469701       -12.7812
  24   2.0000      -0.434676       -11.8281
  25   2.0000      -0.416811       -11.3420
  26   2.0000      -0.399517       -10.8714
  27   2.0000      -0.295319        -8.0360
  28   2.0000      -0.294246        -8.0068
  29   2.0000      -0.283896        -7.7252
  30   2.0000      -0.254923        -6.9368
  31   2.0000      -0.210113        -5.7175
  32   2.0000      -0.208699        -5.6790
  33   2.0000      -0.174387        -4.7453
  34   0.0000       0.240841         6.5536
  35   0.0000       0.281767         7.6673
  36   0.0000       0.294712         8.0195
  37   0.0000       0.314549         8.5593
  38   0.0000       0.346237         9.4216

MULLIKEN ATOMIC CHARGES
-----------------------
   0 C :   -0.121869
   1 C :   -0.219491
   2 Cl:   -0.796373
   3 Cl:   -0.540716
   4 H :    0.291877
   5 H :    0.236823
   6 H :    0.220736
   7 C :   -0.660800
   8 H :    0.256686
   9 H :    0.218979
  10 H :    0.218762
  11 N :   -0.792633
  12 H :    0.324321
  13 H :    0.363698
Sum of atomic charges:   -1.0000000

LOEWDIN ATOMIC CHARGES
----------------------
   0 C :   -0.059394
   1 C :   -0.227190
   2 Cl:   -0.744785
   3 Cl:   -0.437039
   4 H :    0.165182
   5 H :    0.118716
   6 H :    0.106928
   7 C :   -0.319294
   8 H :    0.130055
   9 H :    0.116740
  10 H :    0.117983
  11 N :   -0.368929
  12 H :    0.193784
  13 H :    0.207244

  Mayer bond orders larger than 0.1
B(  0-C ,  1-C ) :   1.4276 B(  0-C ,  2-Cl) :   0.2212 B(  0-C ,  5-H ) :   0.8938
B(  0-C ,  7-C ) :   0.9183 B(  1-C ,  4-H ) :   0.2584 B(  1-C ,  6-H ) :   0.8987
B(  1-C , 11-N ) :   0.9050 B(  3-Cl,  4-H ) :   0.5025 B(  7-C ,  8-H ) :   0.8887
B(  7-C ,  9-H ) :   0.9067 B(  7-C , 10-H ) :   0.8817 B( 11-N , 12-H ) :   0.8161
B( 11-N , 13-H ) :   0.7960

MP2 TOTAL ENERGY:    -1092.818151839 Eh
FINAL SINGLE POINT ENERGY     -1092.818151838961

DIPOLE MOMENT
-------------
                                X             Y             Z
Electronic contribution:     -1.05908       2.82722       0.98974
Nuclear contribution   :     -0.60703      -3.05155      -0.64242
                        -----------------------------------------
Total Dipole Moment    :     -1.66611      -0.22433       0.34732
                        -----------------------------------------
Magnitude (a.u.)       :      1.71665
Magnitude (Debye)      :      4.36337

                             ****ORCA TERMINATED NORMALLY****
TOTAL RUN TIME: 0 days 0 hours 3 minutes 17 seconds 488 msec
