                         Program Version 4.0.1.2 - RELEASE -
|  1> ! MP2 6-311G(d) NoFrozenCore ExtremeSCF Opt
|  2>
|  3> %geom
|  4> MaxIter 3000
|  5> inhess unit
|  6> MaxStep 0.01
|  7> Trust 0.1
|  8> end
|  9>
| 10> %mp2 MaxCore 5000
| 11> end
| 12>
| 13> *xyzfile -1 1 inp.xyz
| 14>
| 15>                          ****END OF INPUT****
 Total Charge           Charge          ....   -1
 Multiplicity           Mult            ....    1
 Number of Electrons    NEL             ....   68
MP2 TOTAL ENERGY:    -1092.873491319 Eh
FINAL SINGLE POINT ENERGY     -1092.873491318701
MP2 TOTAL ENERGY:    -1092.874273364 Eh
FINAL SINGLE POINT ENERGY     -1092.874273364285
MP2 TOTAL ENERGY:    -1092.874672555 Eh
FINAL SINGLE POINT ENERGY     -1092.874672555324
MP2 TOTAL ENERGY:    -1092.874931662 Eh
FINAL SINGLE POINT ENERGY     -1092.874931662489
MP2 TOTAL ENERGY:    -1092.875121681 Eh
FINAL SINGLE POINT ENERGY     -1092.875121681053
MP2 TOTAL ENERGY:    -1092.875271206 Eh
FINAL SINGLE POINT ENERGY     -1092.875271206326
FINAL SINGLE POINT ENERGY     -1092.875399934523
FINAL SINGLE POINT ENERGY     -1092.875524665217
FINAL SINGLE POINT ENERGY     -1092.875662676766
FINAL SINGLE POINT ENERGY     -1092.875817909844
FINAL SINGLE POINT ENERGY     -1092.880150469129
FINAL SINGLE POINT ENERGY     -1092.880151654548
FINAL SINGLE POINT ENERGY     -1092.880152878472
FINAL SINGLE POINT ENERGY     -1092.880154246899
MP2 TOTAL ENERGY:    -1092.880155843 Eh
FINAL SINGLE POINT ENERGY     -1092.880155842625
MP2 TOTAL ENERGY:    -1092.880157535 Eh
FINAL SINGLE POINT ENERGY     -1092.880157534636
MP2 TOTAL ENERGY:    -1092.880159203 Eh
FINAL SINGLE POINT ENERGY     -1092.880159202596
MP2 TOTAL ENERGY:    -1092.880160618 Eh
FINAL SINGLE POINT ENERGY     -1092.880160617779
MP2 TOTAL ENERGY:    -1092.880161541 Eh
FINAL SINGLE POINT ENERGY     -1092.880161541071
                    ***********************HURRAY********************

CARTESIAN COORDINATES (ANGSTROEM)
---------------------------------
  C     -0.135963   -0.126667   -0.243549
  C     -0.093560   -0.221196    1.276328
  Cl     1.548105    0.197749   -0.862170
  Cl    -3.020215    1.443158    0.633061
  H     -1.075369   -0.585596    1.586459
  H     -0.730786    0.741673   -0.520302
  H      0.664312   -0.961709    1.563203
  C     -0.678663   -1.375265   -0.900885
  H     -0.629431   -1.306463   -1.989372
  H     -0.122003   -2.261518   -0.581526
  H     -1.726524   -1.473491   -0.606808
  N      0.139465    1.027039    1.985521
  H     -0.690524    1.594264    1.826196
  H      0.926371    1.504168    1.559775

 Multiplicity           Mult            ....    1
 Number of Electrons    NEL             ....   68
 Basis Dimension        Dim             ....  148

ORBITAL ENERGIES
----------------

  NO   OCC          E(Eh)            E(eV)
   0   2.0000    -104.696565     -2848.9384
   1   2.0000    -104.531540     -2844.4478
   2   2.0000     -15.394094      -418.8946
   3   2.0000     -11.160640      -303.6965
   4   2.0000     -11.121825      -302.6402
   5   2.0000     -11.109990      -302.3182
   6   2.0000     -10.423860      -283.6477
   7   2.0000     -10.257265      -279.1144
   8   2.0000      -7.891902      -214.7496
   9   2.0000      -7.889545      -214.6854
  10   2.0000      -7.889452      -214.6829
  11   2.0000      -7.724191      -210.1859
  12   2.0000      -7.724115      -210.1839
  13   2.0000      -7.724082      -210.1829
  14   2.0000      -1.059709       -28.8362
  15   2.0000      -0.999237       -27.1906
  16   2.0000      -0.887635       -24.1538
  17   2.0000      -0.782645       -21.2968
  18   2.0000      -0.768525       -20.9126
  19   2.0000      -0.668182       -18.1822
  20   2.0000      -0.548429       -14.9235
  21   2.0000      -0.502869       -13.6838
  22   2.0000      -0.488285       -13.2869
  23   2.0000      -0.457143       -12.4395
  24   2.0000      -0.414479       -11.2786
  25   2.0000      -0.406392       -11.0585
  26   2.0000      -0.391824       -10.6621
  27   2.0000      -0.359137        -9.7726
  28   2.0000      -0.318355        -8.6629
  29   2.0000      -0.312523        -8.5042
  30   2.0000      -0.259885        -7.0718
  31   2.0000      -0.184497        -5.0204
  32   2.0000      -0.183588        -4.9957
  33   2.0000      -0.182758        -4.9731
  34   0.0000       0.280010         7.6195
  35   0.0000       0.299873         8.1600
  36   0.0000       0.314904         8.5690
  37   0.0000       0.319294         8.6884
  38   0.0000       0.349879         9.5207

MULLIKEN ATOMIC CHARGES
-----------------------
   0 C :   -0.314533
   1 C :   -0.254270
   2 Cl:   -0.186013
   3 Cl:   -0.922374
   4 H :    0.253237
   5 H :    0.312827
   6 H :    0.186899
   7 C :   -0.638919
   8 H :    0.216894
   9 H :    0.196314
  10 H :    0.261609
  11 N :   -0.786229
  12 H :    0.371374
  13 H :    0.303185
Sum of atomic charges:   -1.0000000

LOEWDIN ATOMIC CHARGES
----------------------
   0 C :   -0.238897
   1 C :   -0.213154
   2 Cl:   -0.018741
   3 Cl:   -0.886760
   4 H :    0.124028
   5 H :    0.130564
   6 H :    0.086797
   7 C :   -0.326005
   8 H :    0.109009
   9 H :    0.101533
  10 H :    0.134574
  11 N :   -0.383139
  12 H :    0.201648
  13 H :    0.178542

  Mayer bond orders larger than 0.1
B(  0-C ,  1-C ) :   0.8813 B(  0-C ,  2-Cl) :   0.8840 B(  0-C ,  5-H ) :   0.8277
B(  0-C ,  7-C ) :   0.8984 B(  1-C ,  4-H ) :   0.8773 B(  1-C ,  6-H ) :   0.9009
B(  1-C , 11-N ) :   0.9349 B(  7-C ,  8-H ) :   0.9093 B(  7-C ,  9-H ) :   0.9064
B(  7-C , 10-H ) :   0.8783 B( 11-N , 12-H ) :   0.7757 B( 11-N , 13-H ) :   0.8332

MP2 TOTAL ENERGY:    -1092.880161868 Eh
FINAL SINGLE POINT ENERGY     -1092.880161867643

DIPOLE MOMENT
-------------
                                X             Y             Z
Electronic contribution:      1.67925       4.94756      -3.03102
Nuclear contribution   :      1.21708      -6.61221       2.07778
                        -----------------------------------------
Total Dipole Moment    :      2.89633      -1.66465      -0.95324
                        -----------------------------------------
Magnitude (a.u.)       :      3.47396
Magnitude (Debye)      :      8.83011

                             ****ORCA TERMINATED NORMALLY****
TOTAL RUN TIME: 0 days 5 hours 56 minutes 15 seconds 762 msec
