                         Program Version 4.0.1.2 - RELEASE -
|  1> ! MP2 6-311G(d) Opt NoFrozenCore ExtremeSCF
|  2>
|  3> %geom
|  4>  MaxIter 1
|  5>  inhess unit
|  6>  MaxStep 0.01
|  7>  Convergence tight
|  8>  Trust 0.1
|  9> end
| 10>
| 11> %mp2 MaxCore 5000
| 12> end
| 13>
| 14> *xyzfile -1 1 inp.xyz
| 15>
| 16>                          ****END OF INPUT****

CARTESIAN COORDINATES (ANGSTROEM)
---------------------------------
  C     -0.277682   -0.124355   -0.174379
  C     -0.226333   -0.095162    1.189543
  Cl     2.171218    0.139000   -0.998690
  Cl    -3.126475    0.437385    1.592086
  H     -1.720175    0.098896    1.237007
  H     -0.338394    0.831115   -0.684535
  H     -0.156467   -1.046460    1.720240
  C     -0.682622   -1.333293   -0.948126
  H     -0.235226   -1.306896   -1.940186
  H     -0.361495   -2.246957   -0.445098
  H     -1.775773   -1.353520   -1.049961
  N      0.298938    1.042566    1.895454
  H     -0.407267    1.759784    2.013077
  H      1.055112    1.413177    1.326210

 Total Charge           Charge          ....   -1
 Multiplicity           Mult            ....    1
 Number of Electrons    NEL             ....   68
 Basis Dimension        Dim             ....  148

ORBITAL ENERGIES
----------------

  NO   OCC          E(Eh)            E(eV)
   0   2.0000    -104.652776     -2847.7468
   1   2.0000    -104.556562     -2845.1287
   2   2.0000     -15.412209      -419.3875
   3   2.0000     -11.163820      -303.7830
   4   2.0000     -11.118798      -302.5579
   5   2.0000     -11.117051      -302.5103
   6   2.0000     -10.379557      -282.4421
   7   2.0000     -10.282709      -279.8067
   8   2.0000      -7.847382      -213.5381
   9   2.0000      -7.845460      -213.4858
  10   2.0000      -7.845453      -213.4856
  11   2.0000      -7.749717      -210.8805
  12   2.0000      -7.749339      -210.8702
  13   2.0000      -7.749290      -210.8689
  14   2.0000      -1.067393       -29.0452
  15   2.0000      -0.947527       -25.7835
  16   2.0000      -0.911938       -24.8151
  17   2.0000      -0.804164       -21.8824
  18   2.0000      -0.795915       -21.6580
  19   2.0000      -0.656646       -17.8682
  20   2.0000      -0.542383       -14.7590
  21   2.0000      -0.524426       -14.2704
  22   2.0000      -0.492070       -13.3899
  23   2.0000      -0.469081       -12.7643
  24   2.0000      -0.434967       -11.8361
  25   2.0000      -0.417201       -11.3526
  26   2.0000      -0.398554       -10.8452
  27   2.0000      -0.297402        -8.0927
  28   2.0000      -0.296433        -8.0663
  29   2.0000      -0.283770        -7.7218
  30   2.0000      -0.254430        -6.9234
  31   2.0000      -0.208953        -5.6859
  32   2.0000      -0.207533        -5.6473
  33   2.0000      -0.173379        -4.7179
  34   0.0000       0.242368         6.5952
  35   0.0000       0.282109         7.6766
  36   0.0000       0.294945         8.0259
  37   0.0000       0.314774         8.5654
  38   0.0000       0.346564         9.4305

MULLIKEN ATOMIC CHARGES
-----------------------
   0 C :   -0.122355
   1 C :   -0.219188
   2 Cl:   -0.799629
   3 Cl:   -0.534596
   4 H :    0.292439
   5 H :    0.236152
   6 H :    0.220088
   7 C :   -0.660795
   8 H :    0.256582
   9 H :    0.218694
  10 H :    0.217650
  11 N :   -0.792763
  12 H :    0.323807
  13 H :    0.363916
Sum of atomic charges:   -1.0000000

LOEWDIN ATOMIC CHARGES
----------------------
   0 C :   -0.061900
   1 C :   -0.226748
   2 Cl:   -0.747859
   3 Cl:   -0.428565
   4 H :    0.163950
   5 H :    0.118346
   6 H :    0.106513
   7 C :   -0.319281
   8 H :    0.129930
   9 H :    0.116559
  10 H :    0.117289
  11 N :   -0.369065
  12 H :    0.193458
  13 H :    0.207371

  Mayer bond orders larger than 0.1
B(  0-C ,  1-C ) :   1.4343 B(  0-C ,  2-Cl) :   0.2164 B(  0-C ,  5-H ) :   0.8942
B(  0-C ,  7-C ) :   0.9179 B(  1-C ,  4-H ) :   0.2517 B(  1-C ,  6-H ) :   0.8991
B(  1-C , 11-N ) :   0.9050 B(  3-Cl,  4-H ) :   0.5094 B(  7-C ,  8-H ) :   0.8887
B(  7-C ,  9-H ) :   0.9069 B(  7-C , 10-H ) :   0.8823 B( 11-N , 12-H ) :   0.8164
B( 11-N , 13-H ) :   0.7959

MP2 TOTAL ENERGY:    -1092.818198936 Eh
FINAL SINGLE POINT ENERGY     -1092.818198935915

DIPOLE MOMENT
-------------
                                X             Y             Z
Electronic contribution:     -1.10703       2.83495       1.01876
Nuclear contribution   :     -0.61461      -3.05104      -0.64300
                        -----------------------------------------
Total Dipole Moment    :     -1.72165      -0.21609       0.37576
                        -----------------------------------------
Magnitude (a.u.)       :      1.77538
Magnitude (Debye)      :      4.51264

                             ****ORCA TERMINATED NORMALLY****
TOTAL RUN TIME: 0 days 0 hours 3 minutes 18 seconds 295 msec
