                         Program Version 4.0.1.2 - RELEASE -
|  1> ! MP2 6-311G(d) Opt NoFrozenCore ExtremeSCF
|  2>
|  3> %pal nprocs 1
|  4> end
|  5>
|  6> %mp2 MaxCore 5000
|  7> end
|  8>
|  9> *xyzfile 0 1 inp.xyz
| 10>
| 11>                          ****END OF INPUT****
 Total Charge           Charge          ....    0
 Multiplicity           Mult            ....    1
 Number of Electrons    NEL             ....   32
MP2 TOTAL ENERGY:     -172.785013235 Eh
FINAL SINGLE POINT ENERGY      -172.785013234610
MP2 TOTAL ENERGY:     -172.786856697 Eh
FINAL SINGLE POINT ENERGY      -172.786856697499
MP2 TOTAL ENERGY:     -172.787414296 Eh
FINAL SINGLE POINT ENERGY      -172.787414295816
MP2 TOTAL ENERGY:     -172.787624062 Eh
FINAL SINGLE POINT ENERGY      -172.787624061955
MP2 TOTAL ENERGY:     -172.787674707 Eh
FINAL SINGLE POINT ENERGY      -172.787674706612
MP2 TOTAL ENERGY:     -172.787691282 Eh
FINAL SINGLE POINT ENERGY      -172.787691282456
MP2 TOTAL ENERGY:     -172.787698688 Eh
FINAL SINGLE POINT ENERGY      -172.787698688187
MP2 TOTAL ENERGY:     -172.787702032 Eh
FINAL SINGLE POINT ENERGY      -172.787702031504
                    ***********************HURRAY********************

CARTESIAN COORDINATES (ANGSTROEM)
---------------------------------
  C     -0.194605   -0.517835   -0.136039
  C      0.082153   -0.221122    1.144140
  H      0.186475    0.133785   -0.922910
  H     -0.283225   -0.866511    1.941282
  C     -0.977499   -1.726625   -0.555292
  H     -0.375788   -2.404173   -1.169393
  H     -1.323239   -2.289286    0.315547
  H     -1.856675   -1.452891   -1.146668
  N      0.909264    0.816563    1.595555
  H      0.580671    1.243389    2.448571
  H      1.079080    1.518457    0.889413

 Multiplicity           Mult            ....    1
 Number of Electrons    NEL             ....   32
 Basis Dimension        Dim             ....   93

ORBITAL ENERGIES
----------------

  NO   OCC          E(Eh)            E(eV)
   0   2.0000     -15.551878      -423.1881
   1   2.0000     -11.257317      -306.3272
   2   2.0000     -11.213667      -305.1394
   3   2.0000     -11.206651      -304.9485
   4   2.0000      -1.202303       -32.7163
   5   2.0000      -1.034627       -28.1536
   6   2.0000      -0.903442       -24.5839
   7   2.0000      -0.768506       -20.9121
   8   2.0000      -0.674912       -18.3653
   9   2.0000      -0.644397       -17.5349
  10   2.0000      -0.559931       -15.2365
  11   2.0000      -0.556065       -15.1313
  12   2.0000      -0.530549       -14.4370
  13   2.0000      -0.495740       -13.4898
  14   2.0000      -0.477853       -13.0030
  15   2.0000      -0.303924        -8.2702
  16   0.0000       0.161390         4.3917
  17   0.0000       0.171664         4.6712
  18   0.0000       0.177400         4.8273
  19   0.0000       0.200751         5.4627
  20   0.0000       0.229778         6.2526

MULLIKEN ATOMIC CHARGES
-----------------------
   0 C :   -0.269350
   1 C :   -0.002057
   2 H :    0.185990
   3 H :    0.203862
   4 C :   -0.675309
   5 H :    0.222281
   6 H :    0.215977
   7 H :    0.219661
   8 N :   -0.769279
   9 H :    0.334178
  10 H :    0.334047
Sum of atomic charges:   -0.0000000

LOEWDIN ATOMIC CHARGES
----------------------
   0 C :   -0.210370
   1 C :   -0.127704
   2 H :    0.103562
   3 H :    0.107302
   4 C :   -0.314834
   5 H :    0.114653
   6 H :    0.113571
   7 H :    0.113236
   8 N :   -0.315887
   9 H :    0.209614
  10 H :    0.206857

  Mayer bond orders larger than 0.1
B(  0-C ,  1-C ) :   1.7261 B(  0-C ,  2-H ) :   0.9093 B(  0-C ,  4-C ) :   0.9245
B(  1-C ,  3-H ) :   0.8982 B(  1-C ,  8-N ) :   0.9579 B(  4-C ,  5-H ) :   0.8962
B(  4-C ,  6-H ) :   0.9104 B(  4-C ,  7-H ) :   0.9001 B(  8-N ,  9-H ) :   0.8168
B(  8-N , 10-H ) :   0.8210

MP2 TOTAL ENERGY:     -172.787703160 Eh
FINAL SINGLE POINT ENERGY      -172.787703160121

DIPOLE MOMENT
-------------
                                X             Y             Z
Electronic contribution:      1.33590       1.75610       1.42828
Nuclear contribution   :     -1.59236      -1.28800      -1.25322
                        -----------------------------------------
Total Dipole Moment    :     -0.25647       0.46809       0.17505
                        -----------------------------------------
Magnitude (a.u.)       :      0.56172
Magnitude (Debye)      :      1.42778

                             ****ORCA TERMINATED NORMALLY****
TOTAL RUN TIME: 0 days 0 hours 6 minutes 6 seconds 927 msec
