                         Program Version 4.0.1.2 - RELEASE -
|  1> ! MP2 6-311G(d) OptTS NoFrozenCore ExtremeSCF
|  2>
|  3> %pal nprocs 1
|  4> end
|  5>
|  6> %mp2 MaxCore 5000
|  7> end
|  8>
|  9> *xyzfile -1 1 inp.xyz
| 10>
| 11>                          ****END OF INPUT****
 Total Charge           Charge          ....   -1
 Multiplicity           Mult            ....    1
 Number of Electrons    NEL             ....   68
 Basis Dimension        Dim             ....  148

ORBITAL ENERGIES
----------------

  NO   OCC          E(Eh)            E(eV)
   0   2.0000    -104.639357     -2847.3817
   1   2.0000    -104.581068     -2845.7955
   2   2.0000     -15.378039      -418.4577
   3   2.0000     -11.138400      -303.0913
   4   2.0000     -11.080620      -301.5190
   5   2.0000     -11.023128      -299.9546
   6   2.0000     -10.365914      -282.0709
   7   2.0000     -10.316826      -280.7351
   8   2.0000      -7.833729      -213.1666
   9   2.0000      -7.831656      -213.1102
  10   2.0000      -7.831566      -213.1077
  11   2.0000      -7.785266      -211.8479
  12   2.0000      -7.781844      -211.7547
  13   2.0000      -7.781806      -211.7537
  14   2.0000      -1.012007       -27.5381
  15   2.0000      -0.939227       -25.5577
  16   2.0000      -0.910348       -24.7718
  17   2.0000      -0.833275       -22.6746
  18   2.0000      -0.739467       -20.1219
  19   2.0000      -0.607018       -16.5178
  20   2.0000      -0.494793       -13.4640
  21   2.0000      -0.475392       -12.9361
  22   2.0000      -0.460386       -12.5277
  23   2.0000      -0.427403       -11.6302
  24   2.0000      -0.381692       -10.3864
  25   2.0000      -0.343886        -9.3576
  26   2.0000      -0.334828        -9.1111
  27   2.0000      -0.328406        -8.9364
  28   2.0000      -0.284054        -7.7295
  29   2.0000      -0.268035        -7.2936
  30   2.0000      -0.263477        -7.1696
  31   2.0000      -0.252043        -6.8584
  32   2.0000      -0.243766        -6.6332
  33   2.0000      -0.093274        -2.5381
  34   0.0000       0.303179         8.2499
  35   0.0000       0.306664         8.3447
  36   0.0000       0.318655         8.6711
  37   0.0000       0.323641         8.8067
  38   0.0000       0.364791         9.9265

MULLIKEN ATOMIC CHARGES
-----------------------
   0 C :   -0.290549
   1 C :   -0.336163
   2 Cl:   -0.290087
   3 Cl:   -0.593374
   4 H :    0.329482
   5 H :    0.210891
   6 H :    0.142383
   7 C :   -0.619496
   8 H :    0.195589
   9 H :    0.246405
  10 H :    0.195867
  11 N :   -0.754473
  12 H :    0.280594
  13 H :    0.282930
Sum of atomic charges:   -1.0000000

LOEWDIN ATOMIC CHARGES
----------------------
   0 C :   -0.191215
   1 C :   -0.424198
   2 Cl:   -0.166900
   3 Cl:   -0.424067
   4 H :    0.095419
   5 H :    0.098739
   6 H :    0.073101
   7 C :   -0.333050
   8 H :    0.099775
   9 H :    0.112176
  10 H :    0.093833
  11 N :   -0.379292
  12 H :    0.171552
  13 H :    0.174127

  Mayer bond orders larger than 0.1
B(  0-C ,  1-C ) :   1.0578 B(  0-C ,  2-Cl) :   0.7363 B(  0-C ,  5-H ) :   0.8807
B(  0-C ,  7-C ) :   0.8950 B(  1-C ,  4-H ) :   0.4410 B(  1-C ,  6-H ) :   0.8951
B(  1-C , 11-N ) :   0.8363 B(  3-Cl,  4-H ) :   0.3978 B(  7-C ,  8-H ) :   0.9077
B(  7-C ,  9-H ) :   0.8809 B(  7-C , 10-H ) :   0.9138 B( 11-N , 12-H ) :   0.8435
B( 11-N , 13-H ) :   0.8324

MP2 TOTAL ENERGY:    -1092.734597789 Eh
FINAL SINGLE POINT ENERGY     -1092.734597789004
MP2 TOTAL ENERGY:    -1092.759308945 Eh
FINAL SINGLE POINT ENERGY     -1092.759308944905
MP2 TOTAL ENERGY:    -1092.788558286 Eh
FINAL SINGLE POINT ENERGY     -1092.788558285947
MP2 TOTAL ENERGY:    -1092.802887006 Eh
FINAL SINGLE POINT ENERGY     -1092.802887006457
MP2 TOTAL ENERGY:    -1092.804958648 Eh
FINAL SINGLE POINT ENERGY     -1092.804958648312
MP2 TOTAL ENERGY:    -1092.808657900 Eh
FINAL SINGLE POINT ENERGY     -1092.808657900355
FINAL SINGLE POINT ENERGY     -1092.811988095698
FINAL SINGLE POINT ENERGY     -1092.815383513055
FINAL SINGLE POINT ENERGY     -1092.819516172920
FINAL SINGLE POINT ENERGY     -1092.823460791248
FINAL SINGLE POINT ENERGY     -1092.814495425109
FINAL SINGLE POINT ENERGY     -1092.815665374021
FINAL SINGLE POINT ENERGY     -1092.816103533272
FINAL SINGLE POINT ENERGY     -1092.816277182890
MP2 TOTAL ENERGY:    -1092.815308065 Eh
FINAL SINGLE POINT ENERGY     -1092.815308065370
MP2 TOTAL ENERGY:    -1092.816246659 Eh
FINAL SINGLE POINT ENERGY     -1092.816246659154
MP2 TOTAL ENERGY:    -1092.816628091 Eh
FINAL SINGLE POINT ENERGY     -1092.816628091077
MP2 TOTAL ENERGY:    -1092.816555345 Eh
FINAL SINGLE POINT ENERGY     -1092.816555344712
MP2 TOTAL ENERGY:    -1092.816682182 Eh
FINAL SINGLE POINT ENERGY     -1092.816682181658

CARTESIAN COORDINATES (ANGSTROEM)
---------------------------------
  C     -0.294615   -0.111124   -0.229768
  C     -0.265045   -0.082996    1.153912
  Cl     2.082724    0.296555   -1.008876
  Cl    -3.059392    0.391019    1.940652
  H     -1.584904    0.044539    1.290620
  H     -0.420342    0.837080   -0.737982
  H     -0.120149   -1.050063    1.643562
  C     -0.672775   -1.348458   -0.972354
  H      0.124623   -1.610382   -1.667460
  H     -0.837936   -2.183063   -0.285587
  H     -1.589164   -1.185738   -1.549518
  N      0.297390    1.039354    1.850406
  H     -0.407481    1.740851    2.038569
  H      1.029427    1.429825    1.263704

MP2 TOTAL ENERGY:    -1092.816858203 Eh
FINAL SINGLE POINT ENERGY     -1092.816858202867

DIPOLE MOMENT
-------------
                                X             Y             Z
Electronic contribution:     -0.25559       3.19450       1.00013
Nuclear contribution   :     -0.41237      -3.71442      -1.31061
                        -----------------------------------------
Total Dipole Moment    :     -0.66797      -0.51991      -0.31047
                        -----------------------------------------
Magnitude (a.u.)       :      0.90160
Magnitude (Debye)      :      2.29168

                             ****ORCA TERMINATED NORMALLY****
TOTAL RUN TIME: 0 days 2 hours 42 minutes 44 seconds 463 msec
