                         Program Version 4.0.1.2 - RELEASE -
|  1> ! MP2 6-311G(d) OptTS NoFrozenCore ExtremeSCF
|  2>
|  3> %pal nprocs 1
|  4> end
|  5>
|  6> %mp2 MaxCore 5000
|  7> end
|  8>
|  9> *xyzfile -1 1 inp.xyz
| 10>
| 11>                          ****END OF INPUT****
 Total Charge           Charge          ....   -1
 Multiplicity           Mult            ....    1
 Number of Electrons    NEL             ....   68
MP2 TOTAL ENERGY:    -1092.816838219 Eh
FINAL SINGLE POINT ENERGY     -1092.816838218874
MP2 TOTAL ENERGY:    -1092.816461827 Eh
FINAL SINGLE POINT ENERGY     -1092.816461827119
MP2 TOTAL ENERGY:    -1092.814899400 Eh
FINAL SINGLE POINT ENERGY     -1092.814899399767
MP2 TOTAL ENERGY:    -1092.813338768 Eh
FINAL SINGLE POINT ENERGY     -1092.813338767732
MP2 TOTAL ENERGY:    -1092.813173199 Eh
FINAL SINGLE POINT ENERGY     -1092.813173198638
MP2 TOTAL ENERGY:    -1092.813742928 Eh
FINAL SINGLE POINT ENERGY     -1092.813742927820
FINAL SINGLE POINT ENERGY     -1092.814564519385
FINAL SINGLE POINT ENERGY     -1092.815332169267
FINAL SINGLE POINT ENERGY     -1092.816191040397
FINAL SINGLE POINT ENERGY     -1092.817139187468
FINAL SINGLE POINT ENERGY     -1092.817992120588
FINAL SINGLE POINT ENERGY     -1092.817994445290
FINAL SINGLE POINT ENERGY     -1092.817996731718
FINAL SINGLE POINT ENERGY     -1092.817999215955
MP2 TOTAL ENERGY:    -1092.818001935 Eh
FINAL SINGLE POINT ENERGY     -1092.818001935104
MP2 TOTAL ENERGY:    -1092.818004487 Eh
FINAL SINGLE POINT ENERGY     -1092.818004486817
MP2 TOTAL ENERGY:    -1092.818006521 Eh
FINAL SINGLE POINT ENERGY     -1092.818006520762
MP2 TOTAL ENERGY:    -1092.818007975 Eh
FINAL SINGLE POINT ENERGY     -1092.818007974581
MP2 TOTAL ENERGY:    -1092.818009044 Eh
FINAL SINGLE POINT ENERGY     -1092.818009044490
                    ***********************HURRAY********************

CARTESIAN COORDINATES (ANGSTROEM)
---------------------------------
  C     -0.270038   -0.124375   -0.178851
  C     -0.232011   -0.094210    1.191373
  Cl     2.168583    0.138568   -0.997662
  Cl    -3.126878    0.437540    1.592113
  H     -1.654833    0.085307    1.234499
  H     -0.344913    0.831861   -0.685531
  H     -0.146312   -1.047385    1.716218
  C     -0.681394   -1.332911   -0.948353
  H     -0.240581   -1.307895   -1.943248
  H     -0.361320   -2.246784   -0.445548
  H     -1.775333   -1.346917   -1.042193
  N      0.299246    1.042797    1.895302
  H     -0.408076    1.758559    2.013949
  H      1.056219    1.413245    1.327811

 Multiplicity           Mult            ....    1
 Number of Electrons    NEL             ....   68
 Basis Dimension        Dim             ....  148

ORBITAL ENERGIES
----------------

  NO   OCC          E(Eh)            E(eV)
   0   2.0000    -104.635174     -2847.2678
   1   2.0000    -104.566163     -2845.3899
   2   2.0000     -15.414402      -419.4472
   3   2.0000     -11.178887      -304.1930
   4   2.0000     -11.123921      -302.6973
   5   2.0000     -11.122892      -302.6693
   6   2.0000     -10.361838      -281.9600
   7   2.0000     -10.292147      -280.0636
   8   2.0000      -7.829483      -213.0511
   9   2.0000      -7.827864      -213.0070
  10   2.0000      -7.827860      -213.0069
  11   2.0000      -7.759188      -211.1382
  12   2.0000      -7.758749      -211.1263
  13   2.0000      -7.758700      -211.1250
  14   2.0000      -1.071533       -29.1579
  15   2.0000      -0.954393       -25.9704
  16   2.0000      -0.892249       -24.2793
  17   2.0000      -0.810808       -22.0632
  18   2.0000      -0.804424       -21.8895
  19   2.0000      -0.664137       -18.0721
  20   2.0000      -0.546039       -14.8585
  21   2.0000      -0.529719       -14.4144
  22   2.0000      -0.497921       -13.5491
  23   2.0000      -0.473716       -12.8905
  24   2.0000      -0.435706       -11.8562
  25   2.0000      -0.413154       -11.2425
  26   2.0000      -0.404833       -11.0161
  27   2.0000      -0.287070        -7.8116
  28   2.0000      -0.281057        -7.6480
  29   2.0000      -0.280159        -7.6235
  30   2.0000      -0.257478        -7.0063
  31   2.0000      -0.217282        -5.9125
  32   2.0000      -0.215906        -5.8751
  33   2.0000      -0.180521        -4.9122
  34   0.0000       0.231907         6.3105
  35   0.0000       0.279660         7.6099
  36   0.0000       0.293126         7.9764
  37   0.0000       0.313256         8.5241
  38   0.0000       0.344358         9.3705

MULLIKEN ATOMIC CHARGES
-----------------------
   0 C :   -0.119321
   1 C :   -0.221345
   2 Cl:   -0.775463
   3 Cl:   -0.579526
   4 H :    0.290161
   5 H :    0.241009
   6 H :    0.224187
   7 C :   -0.660867
   8 H :    0.257318
   9 H :    0.220791
  10 H :    0.225648
  11 N :   -0.792142
  12 H :    0.327384
  13 H :    0.362166
Sum of atomic charges:   -1.0000000

LOEWDIN ATOMIC CHARGES
----------------------
   0 C :   -0.043570
   1 C :   -0.230299
   2 Cl:   -0.725051
   3 Cl:   -0.488688
   4 H :    0.171706
   5 H :    0.121022
   6 H :    0.109310
   7 C :   -0.319378
   8 H :    0.130813
   9 H :    0.117873
  10 H :    0.122300
  11 N :   -0.368111
  12 H :    0.195715
  13 H :    0.206358

  Mayer bond orders larger than 0.1
B(  0-C ,  1-C ) :   1.3859 B(  0-C ,  2-Cl) :   0.2527 B(  0-C ,  5-H ) :   0.8910
B(  0-C ,  7-C ) :   0.9206 B(  1-C ,  4-H ) :   0.3016 B(  1-C ,  6-H ) :   0.8969
B(  1-C , 11-N ) :   0.9051 B(  3-Cl,  4-H ) :   0.4609 B(  7-C ,  8-H ) :   0.8882
B(  7-C ,  9-H ) :   0.9058 B(  7-C , 10-H ) :   0.8780 B( 11-N , 12-H ) :   0.8147
B( 11-N , 13-H ) :   0.7971

MP2 TOTAL ENERGY:    -1092.818009905 Eh
FINAL SINGLE POINT ENERGY     -1092.818009905428

DIPOLE MOMENT
-------------
                                X             Y             Z
Electronic contribution:     -0.76489       2.78041       0.80629
Nuclear contribution   :     -0.55554      -3.05580      -0.63855
                        -----------------------------------------
Total Dipole Moment    :     -1.32043      -0.27539       0.16774
                        -----------------------------------------
Magnitude (a.u.)       :      1.35924
Magnitude (Debye)      :      3.45490

                             ****ORCA TERMINATED NORMALLY****
TOTAL RUN TIME: 0 days 1 hours 32 minutes 36 seconds 995 msec
