                         Program Version 4.0.1.2 - RELEASE -
|  1> ! MP2 6-311G(d) Opt NoFrozenCore ExtremeSCF
|  2>
|  3> %geom
|  4>  MaxIter 1
|  5>  inhess unit
|  6>  MaxStep 0.01
|  7>  Convergence tight
|  8>  Trust 0.1
|  9> end
| 10>
| 11> %mp2 MaxCore 5000
| 12> end
| 13>
| 14> *xyzfile -1 1 inp.xyz
| 15>
| 16>                          ****END OF INPUT****
 Total Charge           Charge          ....   -1
 Multiplicity           Mult            ....    1
 Number of Electrons    NEL             ....   68
MP2 TOTAL ENERGY:    -1092.818044198 Eh
FINAL SINGLE POINT ENERGY     -1092.818044198038
                    ***********************HURRAY********************

CARTESIAN COORDINATES (ANGSTROEM)
---------------------------------
  C     -0.273525   -0.124302   -0.176856
  C     -0.229571   -0.094597    1.190327
  Cl     2.170298    0.138808   -0.998297
  Cl    -3.127514    0.437670    1.593499
  H     -1.683827    0.091294    1.236029
  H     -0.341767    0.831578   -0.684944
  H     -0.150978   -1.046951    1.717751
  C     -0.681748   -1.333059   -0.948430
  H     -0.237623   -1.307636   -1.941883
  H     -0.361372   -2.246804   -0.445337
  H     -1.775337   -1.349973   -1.046048
  N      0.299217    1.042612    1.895131
  H     -0.407535    1.759086    2.013336
  H      1.055786    1.413048    1.326785

 Multiplicity           Mult            ....    1
 Number of Electrons    NEL             ....   68
 Basis Dimension        Dim             ....  148

ORBITAL ENERGIES
----------------

  NO   OCC          E(Eh)            E(eV)
   0   2.0000    -104.643000     -2847.4808
   1   2.0000    -104.561857     -2845.2728
   2   2.0000     -15.413510      -419.4229
   3   2.0000     -11.172306      -304.0139
   4   2.0000     -11.121839      -302.6406
   5   2.0000     -11.120374      -302.6008
   6   2.0000     -10.369682      -282.1734
   7   2.0000     -10.287913      -279.9484
   8   2.0000      -7.837402      -213.2666
   9   2.0000      -7.835656      -213.2190
  10   2.0000      -7.835650      -213.2189
  11   2.0000      -7.754940      -211.0226
  12   2.0000      -7.754529      -211.0115
  13   2.0000      -7.754480      -211.0101
  14   2.0000      -1.069801       -29.1108
  15   2.0000      -0.951340       -25.8873
  16   2.0000      -0.900805       -24.5121
  17   2.0000      -0.807960       -21.9857
  18   2.0000      -0.800651       -21.7868
  19   2.0000      -0.660913       -17.9844
  20   2.0000      -0.544401       -14.8139
  21   2.0000      -0.527510       -14.3543
  22   2.0000      -0.495375       -13.4798
  23   2.0000      -0.471653       -12.8343
  24   2.0000      -0.434707       -11.8290
  25   2.0000      -0.415131       -11.2963
  26   2.0000      -0.402286       -10.9468
  27   2.0000      -0.289736        -7.8841
  28   2.0000      -0.287806        -7.8316
  29   2.0000      -0.283729        -7.7207
  30   2.0000      -0.256272        -6.9735
  31   2.0000      -0.213554        -5.8111
  32   2.0000      -0.212160        -5.7732
  33   2.0000      -0.177463        -4.8290
  34   0.0000       0.236331         6.4309
  35   0.0000       0.280701         7.6383
  36   0.0000       0.293944         7.9986
  37   0.0000       0.313867         8.5407
  38   0.0000       0.345267         9.3952

MULLIKEN ATOMIC CHARGES
-----------------------
   0 C :   -0.120287
   1 C :   -0.220414
   2 Cl:   -0.786735
   3 Cl:   -0.559258
   4 H :    0.290591
   5 H :    0.238871
   6 H :    0.222586
   7 C :   -0.660905
   8 H :    0.257058
   9 H :    0.219858
  10 H :    0.222058
  11 N :   -0.792292
  12 H :    0.325843
  13 H :    0.363027
Sum of atomic charges:   -1.0000000

LOEWDIN ATOMIC CHARGES
----------------------
   0 C :   -0.051730
   1 C :   -0.228499
   2 Cl:   -0.735738
   3 Cl:   -0.462297
   4 H :    0.168677
   5 H :    0.119844
   6 H :    0.108144
   7 C :   -0.319319
   8 H :    0.130450
   9 H :    0.117290
  10 H :    0.120059
  11 N :   -0.368489
  12 H :    0.194752
  13 H :    0.206853

  Mayer bond orders larger than 0.1
B(  0-C ,  1-C ) :   1.4077 B(  0-C ,  2-Cl) :   0.2357 B(  0-C ,  5-H ) :   0.8925
B(  0-C ,  7-C ) :   0.9194 B(  1-C ,  4-H ) :   0.2788 B(  1-C ,  6-H ) :   0.8978
B(  1-C , 11-N ) :   0.9051 B(  3-Cl,  4-H ) :   0.4824 B(  7-C ,  8-H ) :   0.8884
B(  7-C ,  9-H ) :   0.9063 B(  7-C , 10-H ) :   0.8800 B( 11-N , 12-H ) :   0.8154
B( 11-N , 13-H ) :   0.7965

MP2 TOTAL ENERGY:    -1092.818049216 Eh
FINAL SINGLE POINT ENERGY     -1092.818049215927

DIPOLE MOMENT
-------------
                                X             Y             Z
Electronic contribution:     -0.91835       2.80427       0.90311
Nuclear contribution   :     -0.58254      -3.05319      -0.64110
                        -----------------------------------------
Total Dipole Moment    :     -1.50089      -0.24893       0.26201
                        -----------------------------------------
Magnitude (a.u.)       :      1.54379
Magnitude (Debye)      :      3.92400

                             ****ORCA TERMINATED NORMALLY****
TOTAL RUN TIME: 0 days 0 hours 5 minutes 49 seconds 225 msec
