                         Program Version 4.0.1.2 - RELEASE -
|  1> ! MP2 6-311G(d) Opt NoFrozenCore ExtremeSCF
|  2>
|  3> %geom
|  4>  MaxIter 1
|  5>  inhess unit
|  6>  MaxStep 0.01
|  7>  Convergence tight
|  8>  Trust 0.1
|  9> end
| 10>
| 11> %mp2 MaxCore 5000
| 12> end
| 13>
| 14> *xyzfile -1 1 inp.xyz
| 15>
| 16>                          ****END OF INPUT****
 Total Charge           Charge          ....   -1
 Multiplicity           Mult            ....    1
 Number of Electrons    NEL             ....   68
MP2 TOTAL ENERGY:    -1092.818018497 Eh
FINAL SINGLE POINT ENERGY     -1092.818018497423
                    ***********************HURRAY********************

CARTESIAN COORDINATES (ANGSTROEM)
---------------------------------
  C     -0.268782   -0.124316   -0.179720
  C     -0.232941   -0.094002    1.191653
  Cl     2.168140    0.138319   -0.997328
  Cl    -3.126943    0.437243    1.592403
  H     -1.645241    0.083297    1.234420
  H     -0.345832    0.832041   -0.685906
  H     -0.144855   -1.047501    1.715544
  C     -0.681178   -1.332831   -0.948482
  H     -0.241220   -1.308425   -1.943762
  H     -0.361566   -2.246732   -0.445512
  H     -1.775221   -1.345538   -1.041236
  N      0.299220    1.042922    1.895278
  H     -0.408302    1.758442    2.014025
  H      1.056366    1.413355    1.328111

 Multiplicity           Mult            ....    1
 Number of Electrons    NEL             ....   68
 Basis Dimension        Dim             ....  148

ORBITAL ENERGIES
----------------

  NO   OCC          E(Eh)            E(eV)
   0   2.0000    -104.632527     -2847.1958
   1   2.0000    -104.567661     -2845.4307
   2   2.0000     -15.414685      -419.4549
   3   2.0000     -11.181122      -304.2538
   4   2.0000     -11.124575      -302.7151
   5   2.0000     -11.123748      -302.6926
   6   2.0000     -10.359189      -281.8879
   7   2.0000     -10.293619      -280.1036
   8   2.0000      -7.826809      -212.9783
   9   2.0000      -7.825233      -212.9354
  10   2.0000      -7.825229      -212.9353
  11   2.0000      -7.760665      -211.1784
  12   2.0000      -7.760216      -211.1662
  13   2.0000      -7.760167      -211.1649
  14   2.0000      -1.072092       -29.1731
  15   2.0000      -0.955411       -25.9981
  16   2.0000      -0.889383       -24.2013
  17   2.0000      -0.811755       -22.0890
  18   2.0000      -0.805706       -21.9244
  19   2.0000      -0.665231       -18.1019
  20   2.0000      -0.546604       -14.8739
  21   2.0000      -0.530423       -14.4335
  22   2.0000      -0.498748       -13.5716
  23   2.0000      -0.474435       -12.9100
  24   2.0000      -0.436180       -11.8691
  25   2.0000      -0.412599       -11.2274
  26   2.0000      -0.405551       -11.0356
  27   2.0000      -0.286911        -7.8073
  28   2.0000      -0.278785        -7.5861
  29   2.0000      -0.278183        -7.5697
  30   2.0000      -0.257842        -7.0162
  31   2.0000      -0.218574        -5.9477
  32   2.0000      -0.217204        -5.9104
  33   2.0000      -0.181545        -4.9401
  34   0.0000       0.230401         6.2695
  35   0.0000       0.279297         7.6001
  36   0.0000       0.292823         7.9681
  37   0.0000       0.313061         8.5188
  38   0.0000       0.344067         9.3625

MULLIKEN ATOMIC CHARGES
-----------------------
   0 C :   -0.118972
   1 C :   -0.221793
   2 Cl:   -0.771427
   3 Cl:   -0.586553
   4 H :    0.290165
   5 H :    0.241726
   6 H :    0.224689
   7 C :   -0.660855
   8 H :    0.257405
   9 H :    0.221109
  10 H :    0.226870
  11 N :   -0.792094
  12 H :    0.327887
  13 H :    0.361841
Sum of atomic charges:   -1.0000000

LOEWDIN ATOMIC CHARGES
----------------------
   0 C :   -0.040704
   1 C :   -0.231010
   2 Cl:   -0.721220
   3 Cl:   -0.497676
   4 H :    0.172625
   5 H :    0.121414
   6 H :    0.109687
   7 C :   -0.319401
   8 H :    0.130929
   9 H :    0.118071
  10 H :    0.123071
  11 N :   -0.367985
  12 H :    0.196030
  13 H :    0.206169

  Mayer bond orders larger than 0.1
B(  0-C ,  1-C ) :   1.3783 B(  0-C ,  2-Cl) :   0.2588 B(  0-C ,  5-H ) :   0.8905
B(  0-C ,  7-C ) :   0.9210 B(  1-C ,  4-H ) :   0.3096 B(  1-C ,  6-H ) :   0.8966
B(  1-C , 11-N ) :   0.9050 B(  3-Cl,  4-H ) :   0.4536 B(  7-C ,  8-H ) :   0.8881
B(  7-C ,  9-H ) :   0.9056 B(  7-C , 10-H ) :   0.8773 B( 11-N , 12-H ) :   0.8145
B( 11-N , 13-H ) :   0.7973

MP2 TOTAL ENERGY:    -1092.818019668 Eh
FINAL SINGLE POINT ENERGY     -1092.818019667515

DIPOLE MOMENT
-------------
                                X             Y             Z
Electronic contribution:     -0.71189       2.77138       0.77428
Nuclear contribution   :     -0.54606      -3.05551      -0.64012
                        -----------------------------------------
Total Dipole Moment    :     -1.25795      -0.28413       0.13416
                        -----------------------------------------
Magnitude (a.u.)       :      1.29660
Magnitude (Debye)      :      3.29570

                             ****ORCA TERMINATED NORMALLY****
TOTAL RUN TIME: 0 days 0 hours 6 minutes 15 seconds 501 msec
