                         Program Version 4.0.1.2 - RELEASE -
|  1> ! MP2 6-311G(d) NoFrozenCore ExtremeSCF NumFreq
|  2>
|  3> %pal nprocs 1
|  4> end
|  5>
|  6> %mp2 MaxCore 5000
|  7> end
|  8>
|  9> %freq
| 10> restart true
| 11> end
| 12>
| 13> %geom
| 14> Calc_Hess true
| 15> NumHess true
| 16> end
| 17>
| 18> *xyzfile 0 1 inp.xyz
| 19>
| 20>                          ****END OF INPUT****

CARTESIAN COORDINATES (ANGSTROEM)
---------------------------------
  C     -0.194605   -0.517835   -0.136039
  C      0.082153   -0.221122    1.144140
  H      0.186475    0.133785   -0.922910
  H     -0.283225   -0.866511    1.941282
  C     -0.977499   -1.726625   -0.555292
  H     -0.375788   -2.404173   -1.169393
  H     -1.323239   -2.289286    0.315547
  H     -1.856675   -1.452891   -1.146668
  N      0.909264    0.816563    1.595555
  H      0.580671    1.243389    2.448571
  H      1.079080    1.518457    0.889413

 Total Charge           Charge          ....    0
 Multiplicity           Mult            ....    1
 Number of Electrons    NEL             ....   32
 Basis Dimension        Dim             ....   93

ORBITAL ENERGIES
----------------

  NO   OCC          E(Eh)            E(eV)
   0   2.0000     -15.551879      -423.1881
   1   2.0000     -11.257320      -306.3273
   2   2.0000     -11.213667      -305.1394
   3   2.0000     -11.206652      -304.9485
   4   2.0000      -1.202304       -32.7164
   5   2.0000      -1.034627       -28.1536
   6   2.0000      -0.903442       -24.5839
   7   2.0000      -0.768507       -20.9121
   8   2.0000      -0.674913       -18.3653
   9   2.0000      -0.644398       -17.5350
  10   2.0000      -0.559931       -15.2365
  11   2.0000      -0.556066       -15.1313
  12   2.0000      -0.530549       -14.4370
  13   2.0000      -0.495740       -13.4898
  14   2.0000      -0.477853       -13.0031
  15   2.0000      -0.303924        -8.2702
  16   0.0000       0.161390         4.3916
  17   0.0000       0.171664         4.6712
  18   0.0000       0.177400         4.8273
  19   0.0000       0.200751         5.4627
  20   0.0000       0.229778         6.2526

MULLIKEN ATOMIC CHARGES
-----------------------
   0 C :   -0.269338
   1 C :   -0.002052
   2 H :    0.185984
   3 H :    0.203855
   4 C :   -0.675310
   5 H :    0.222280
   6 H :    0.215977
   7 H :    0.219660
   8 N :   -0.769277
   9 H :    0.334177
  10 H :    0.334044
Sum of atomic charges:   -0.0000000

LOEWDIN ATOMIC CHARGES
----------------------
   0 C :   -0.210359
   1 C :   -0.127705
   2 H :    0.103559
   3 H :    0.107299
   4 C :   -0.314839
   5 H :    0.114654
   6 H :    0.113571
   7 H :    0.113237
   8 N :   -0.315886
   9 H :    0.209613
  10 H :    0.206856

  Mayer bond orders larger than 0.1
B(  0-C ,  1-C ) :   1.7261 B(  0-C ,  2-H ) :   0.9093 B(  0-C ,  4-C ) :   0.9245
B(  1-C ,  3-H ) :   0.8982 B(  1-C ,  8-N ) :   0.9579 B(  4-C ,  5-H ) :   0.8962
B(  4-C ,  6-H ) :   0.9104 B(  4-C ,  7-H ) :   0.9001 B(  8-N ,  9-H ) :   0.8168
B(  8-N , 10-H ) :   0.8210

MP2 TOTAL ENERGY:     -172.787703173 Eh
FINAL SINGLE POINT ENERGY      -172.787703173237

DIPOLE MOMENT
-------------
                                X             Y             Z
Electronic contribution:      1.33590       1.75610       1.42826
Nuclear contribution   :     -1.59236      -1.28800      -1.25322
                        -----------------------------------------
Total Dipole Moment    :     -0.25647       0.46809       0.17504
                        -----------------------------------------
Magnitude (a.u.)       :      0.56172
Magnitude (Debye)      :      1.42777

VIBRATIONAL FREQUENCIES
-----------------------

   0:         0.00 cm**-1
   1:         0.00 cm**-1
   2:         0.00 cm**-1
   3:         0.00 cm**-1
   4:         0.00 cm**-1
   5:         0.00 cm**-1
   6:       186.58 cm**-1
   7:       243.66 cm**-1
   8:       291.69 cm**-1
   9:       361.38 cm**-1
  10:       533.36 cm**-1
  11:       737.53 cm**-1
  12:       814.06 cm**-1
  13:       940.33 cm**-1
  14:       960.01 cm**-1
  15:      1080.42 cm**-1
  16:      1095.98 cm**-1
  17:      1164.34 cm**-1
  18:      1269.08 cm**-1
  19:      1351.87 cm**-1
  20:      1399.77 cm**-1
  21:      1459.02 cm**-1
  22:      1519.24 cm**-1
  23:      1543.95 cm**-1
  24:      1720.61 cm**-1
  25:      1764.35 cm**-1
  26:      3063.47 cm**-1
  27:      3133.56 cm**-1
  28:      3155.92 cm**-1
  29:      3171.60 cm**-1
  30:      3193.61 cm**-1
  31:      3588.43 cm**-1
  32:      3698.92 cm**-1

IR SPECTRUM
-----------

 Mode    freq (cm**-1)   T**2         TX         TY         TZ
-------------------------------------------------------------------
   6:       186.58    1.615401  ( -0.938551   0.595859  -0.616015)
   7:       243.66   17.568241  ( -2.510620   0.117360   3.354289)
   8:       291.69   11.654911  ( -2.478083  -0.945794  -2.149299)
   9:       361.38   46.220515  (  2.464474   0.021873   6.336119)
  10:       533.36    1.668452  ( -0.085396  -0.074405  -1.286710)
  11:       737.53  109.659315  ( -8.063125  -3.788490  -5.503878)
  12:       814.06  246.607669  (-13.642188  -2.305095  -7.428654)
  13:       940.33    8.785754  ( -1.855878   1.495123  -1.762407)
  14:       960.01   52.379282  ( -5.811999   3.804859   2.030518)
  15:      1080.42    0.299703  ( -0.224030   0.423046   0.265604)
  16:      1095.98    2.355557  (  0.779457   0.643579   1.154907)
  17:      1164.34   12.970747  ( -1.071521  -1.769661  -2.948032)
  18:      1269.08   46.713524  ( -2.720239  -4.431990  -4.435233)
  19:      1351.87    0.623649  (  0.492786   0.470525   0.399270)
  20:      1399.77    0.267346  ( -0.231908   0.393779  -0.241874)
  21:      1459.02    2.894696  (  0.771625   0.908440  -1.214095)
  22:      1519.24    7.893024  ( -2.428332   1.403629   0.161409)
  23:      1543.95    8.603629  ( -1.083086  -1.662030   2.160604)
  24:      1720.61   29.349383  ( -1.880502   4.636043  -2.078509)
  25:      1764.35   84.937681  ( -2.956797  -7.117230  -5.053719)
  26:      3063.47   43.261937  ( -3.162657  -4.860639  -3.103824)
  27:      3133.56   27.344362  (  4.480483  -2.675426  -0.334263)
  28:      3155.92   13.737946  (  0.704325   0.581732   3.592139)
  29:      3171.60   31.910463  ( -2.076855  -3.713292   3.715993)
  30:      3193.61   23.421911  (  2.095272   3.562868  -2.517482)
  31:      3588.43    6.093613  (  0.194592  -2.077775  -1.318559)
  32:      3698.92    6.094510  ( -0.908562  -0.254866   2.281243)

--------------------------
THERMOCHEMISTRY AT 298.15K
--------------------------

Temperature         ... 298.15 K
Pressure            ... 1.00 atm
Total Mass          ... 57.10 AMU

Throughout the following assumptions are being made:
  (1) The electronic state is orbitally nondegenerate
  (2) There are no thermally accessible electronically excited states
  (3) Hindered rotations indicated by low frequency modes are not
      treated as such but are treated as vibrations and this may
      cause some error
  (4) All equations used are the standard statistical mechanics
      equations for an ideal gas
  (5) All vibrations are strictly harmonic

freq.     186.58  E(vib)   ...       0.37
freq.     243.66  E(vib)   ...       0.31
freq.     291.69  E(vib)   ...       0.27
freq.     361.38  E(vib)   ...       0.22
freq.     533.36  E(vib)   ...       0.13
freq.     737.53  E(vib)   ...       0.06
freq.     814.06  E(vib)   ...       0.05
freq.     940.33  E(vib)   ...       0.03
freq.     960.01  E(vib)   ...       0.03
freq.    1080.42  E(vib)   ...       0.02
freq.    1095.98  E(vib)   ...       0.02
freq.    1164.34  E(vib)   ...       0.01
freq.    1269.08  E(vib)   ...       0.01
freq.    1351.87  E(vib)   ...       0.01
freq.    1399.77  E(vib)   ...       0.00
freq.    1459.02  E(vib)   ...       0.00
freq.    1519.24  E(vib)   ...       0.00
freq.    1543.95  E(vib)   ...       0.00
freq.    1720.61  E(vib)   ...       0.00
freq.    1764.35  E(vib)   ...       0.00
freq.    3063.47  E(vib)   ...       0.00
freq.    3133.56  E(vib)   ...       0.00
freq.    3155.92  E(vib)   ...       0.00
freq.    3171.60  E(vib)   ...       0.00
freq.    3193.61  E(vib)   ...       0.00
freq.    3588.43  E(vib)   ...       0.00
freq.    3698.92  E(vib)   ...       0.00

------------
INNER ENERGY
------------

The inner energy is: U= E(el) + E(ZPE) + E(vib) + E(rot) + E(trans)
    E(el)   - is the total energy from the electronic structure calculation
              = E(kin-el) + E(nuc-el) + E(el-el) + E(nuc-nuc)
    E(ZPE)  - the the zero temperature vibrational energy from the frequency calculation
    E(vib)  - the the finite temperature correction to E(ZPE) due to population
              of excited vibrational states
    E(rot)  - is the rotational thermal energy
    E(trans)- is the translational thermal energy

Summary of contributions to the inner energy U:
Electronic energy                ...   -172.78770316 Eh
Zero point energy                ...      0.09896986 Eh      62.10 kcal/mol
Thermal vibrational correction   ...      0.00243874 Eh       1.53 kcal/mol
Thermal rotational correction    ...      0.00141627 Eh       0.89 kcal/mol
Thermal translational correction ...      0.00141627 Eh       0.89 kcal/mol
-----------------------------------------------------------------------
Total thermal energy                   -172.68346201 Eh

Summary of corrections to the electronic energy:
(perhaps to be used in another calculation)
Total thermal correction                  0.00527128 Eh       3.31 kcal/mol
Non-thermal (ZPE) correction              0.09896986 Eh      62.10 kcal/mol
-----------------------------------------------------------------------
Total correction                          0.10424115 Eh      65.41 kcal/mol

--------
ENTHALPY
--------

The enthalpy is H = U + kB*T
                kB is Boltzmann's constant
Total free energy                 ...   -172.68346201 Eh
Thermal Enthalpy correction       ...      0.00094421 Eh       0.59 kcal/mol
-----------------------------------------------------------------------
Total Enthalpy                    ...   -172.68251780 Eh

Vibrational entropy computed according to the QRRHO of S. Grimme
Chem.Eur.J. 2012 18 9955

-------
ENTROPY
-------

The entropy contributions are T*S = T*(S(el)+S(vib)+S(rot)+S(trans)
     S(el)   - electronic entropy
     S(vib)  - vibrational entropy
     S(rot)  - rotational entropy
     S(trans)- translational entropy
The entropies will be listed as mutliplied by the temperature to get
units of energy

Electronic entropy                ...      0.00000000 Eh      0.00 kcal/mol
Vibrational entropy               ...      0.00389229 Eh      2.44 kcal/mol
Rotational entropy                ...      0.01032405 Eh      6.48 kcal/mol
Translational entropy             ...      0.01807751 Eh     11.34 kcal/mol
-----------------------------------------------------------------------
Final entropy term                ...      0.03229386 Eh     20.26 kcal/mol

CAUTION: The rotational entropy is not quite correctly treated here
         because it includes a symmetry number that is not yet correctly
         implemented in ORCA!
For a nonlinear molecule the correct rotational entropy is:
    S(rot) = R*(ln(qrot/sn)+1.5)
    R    = 8.31441 J/mol/K = 1.987191683e-3 kcal/mol/K
    qrot = 37534.4324534
    sn is the rotational symmetry number. We have assumed 3 here
       if it is different for your molecule then you should correct
       the printed rotational entropy by manually evaluating the equation
       as given above

For convenience we print out the resulting values for sn=1 - 12:
 sn= 1  qrot/sn=   37534.4325 T*S(rot)=     7.13 kcal/mol T*S(tot)=    20.92 kcal/mol
 sn= 2  qrot/sn=   18767.2162 T*S(rot)=     6.72 kcal/mol T*S(tot)=    20.50 kcal/mol
 sn= 3  qrot/sn=   12511.4775 T*S(rot)=     6.48 kcal/mol T*S(tot)=    20.26 kcal/mol
 sn= 4  qrot/sn=    9383.6081 T*S(rot)=     6.31 kcal/mol T*S(tot)=    20.09 kcal/mol
 sn= 5  qrot/sn=    7506.8865 T*S(rot)=     6.18 kcal/mol T*S(tot)=    19.96 kcal/mol
 sn= 6  qrot/sn=    6255.7387 T*S(rot)=     6.07 kcal/mol T*S(tot)=    19.85 kcal/mol
 sn= 7  qrot/sn=    5362.0618 T*S(rot)=     5.98 kcal/mol T*S(tot)=    19.76 kcal/mol
 sn= 8  qrot/sn=    4691.8041 T*S(rot)=     5.90 kcal/mol T*S(tot)=    19.68 kcal/mol
 sn= 9  qrot/sn=    4170.4925 T*S(rot)=     5.83 kcal/mol T*S(tot)=    19.61 kcal/mol
 sn=10  qrot/sn=    3753.4432 T*S(rot)=     5.77 kcal/mol T*S(tot)=    19.55 kcal/mol
 sn=11  qrot/sn=    3412.2211 T*S(rot)=     5.71 kcal/mol T*S(tot)=    19.49 kcal/mol
 sn=12  qrot/sn=    3127.8694 T*S(rot)=     5.66 kcal/mol T*S(tot)=    19.44 kcal/mol

-------------------
GIBBS FREE ENTHALPY
-------------------

The Gibbs free enthalpy is G = H - T*S

Total enthalpy                    ...   -172.68251780 Eh
Total entropy correction          ...     -0.03229386 Eh    -20.26 kcal/mol
-----------------------------------------------------------------------
Final Gibbs free enthalpy         ...   -172.71481166 Eh

For completeness - the Gibbs free enthalpy minus the electronic energy
G-E(el)                           ...      0.07289150 Eh     45.74 kcal/mol

                             ****ORCA TERMINATED NORMALLY****
TOTAL RUN TIME: 0 days 0 hours 25 minutes 5 seconds 797 msec
