                         Program Version 4.0.1.2 - RELEASE -
|  1> ! MP2 6-311G(d) Opt NoFrozenCore ExtremeSCF
|  2>
|  3> %geom
|  4>  MaxIter 1
|  5>  inhess unit
|  6>  MaxStep 0.01
|  7>  Convergence tight
|  8>  Trust 0.1
|  9> end
| 10>
| 11> %mp2 MaxCore 5000
| 12> end
| 13>
| 14> *xyzfile -1 1 inp.xyz
| 15>
| 16>                          ****END OF INPUT****

CARTESIAN COORDINATES (ANGSTROEM)
---------------------------------
  C     -0.280958   -0.124347   -0.172463
  C     -0.223900   -0.095570    1.188759
  Cl     2.172348    0.139185   -0.999130
  Cl    -3.126302    0.437318    1.592075
  H     -1.748178    0.104719    1.238082
  H     -0.335600    0.830795   -0.684108
  H     -0.160819   -1.046064    1.721963
  C     -0.683148   -1.333457   -0.948029
  H     -0.232931   -1.306468   -1.938874
  H     -0.361569   -2.247032   -0.444906
  H     -1.775962   -1.356349   -1.053290
  N      0.298806    1.042467    1.895519
  H     -0.406921    1.760309    2.012703
  H      1.054638    1.413147    1.325524

 Total Charge           Charge          ....   -1
 Multiplicity           Mult            ....    1
 Number of Electrons    NEL             ....   68
 Basis Dimension        Dim             ....  148

ORBITAL ENERGIES
----------------

  NO   OCC          E(Eh)            E(eV)
   0   2.0000    -104.660030     -2847.9442
   1   2.0000    -104.552671     -2845.0228
   2   2.0000     -15.411230      -419.3609
   3   2.0000     -11.157419      -303.6088
   4   2.0000     -11.116464      -302.4944
   5   2.0000     -11.114587      -302.4433
   6   2.0000     -10.386924      -282.6426
   7   2.0000     -10.278881      -279.7026
   8   2.0000      -7.854835      -213.7409
   9   2.0000      -7.852773      -213.6848
  10   2.0000      -7.852765      -213.6846
  11   2.0000      -7.745877      -210.7760
  12   2.0000      -7.745522      -210.7664
  13   2.0000      -7.745474      -210.7651
  14   2.0000      -1.065665       -28.9982
  15   2.0000      -0.945131       -25.7183
  16   2.0000      -0.920083       -25.0367
  17   2.0000      -0.801372       -21.8064
  18   2.0000      -0.792405       -21.5624
  19   2.0000      -0.653498       -17.7826
  20   2.0000      -0.541035       -14.7223
  21   2.0000      -0.522103       -14.2072
  22   2.0000      -0.489750       -13.3268
  23   2.0000      -0.467383       -12.7181
  24   2.0000      -0.436801       -11.8860
  25   2.0000      -0.417618       -11.3640
  26   2.0000      -0.395631       -10.7657
  27   2.0000      -0.303723        -8.2647
  28   2.0000      -0.302918        -8.2428
  29   2.0000      -0.283206        -7.7064
  30   2.0000      -0.252865        -6.8808
  31   2.0000      -0.205556        -5.5935
  32   2.0000      -0.204119        -5.5544
  33   2.0000      -0.170413        -4.6372
  34   0.0000       0.246984         6.7208
  35   0.0000       0.283109         7.7038
  36   0.0000       0.295580         8.0431
  37   0.0000       0.315460         8.5841
  38   0.0000       0.347556         9.4575

MULLIKEN ATOMIC CHARGES
-----------------------
   0 C :   -0.123936
   1 C :   -0.218246
   2 Cl:   -0.808996
   3 Cl:   -0.516873
   4 H :    0.294541
   5 H :    0.234191
   6 H :    0.218041
   7 C :   -0.660784
   8 H :    0.256271
   9 H :    0.217865
  10 H :    0.214379
  11 N :   -0.793231
  12 H :    0.322264
  13 H :    0.364513
Sum of atomic charges:   -1.0000000

LOEWDIN ATOMIC CHARGES
----------------------
   0 C :   -0.069192
   1 C :   -0.225522
   2 Cl:   -0.756702
   3 Cl:   -0.403420
   4 H :    0.159995
   5 H :    0.117263
   6 H :    0.105247
   7 C :   -0.319242
   8 H :    0.129562
   9 H :    0.116031
  10 H :    0.115251
  11 N :   -0.369469
  12 H :    0.192478
  13 H :    0.207719

  Mayer bond orders larger than 0.1
B(  0-C ,  1-C ) :   1.4541 B(  0-C ,  2-Cl) :   0.2026 B(  0-C ,  5-H ) :   0.8955
B(  0-C ,  7-C ) :   0.9169 B(  1-C ,  4-H ) :   0.2325 B(  1-C ,  6-H ) :   0.9001
B(  1-C , 11-N ) :   0.9048 B(  3-Cl,  4-H ) :   0.5298 B(  7-C ,  8-H ) :   0.8890
B(  7-C ,  9-H ) :   0.9073 B(  7-C , 10-H ) :   0.8840 B( 11-N , 12-H ) :   0.8171
B( 11-N , 13-H ) :   0.7955

MP2 TOTAL ENERGY:    -1092.818353535 Eh
FINAL SINGLE POINT ENERGY     -1092.818353534539

DIPOLE MOMENT
-------------
                                X             Y             Z
Electronic contribution:     -1.24897       2.85786       1.10368
Nuclear contribution   :     -0.63557      -3.04974      -0.64530
                        -----------------------------------------
Total Dipole Moment    :     -1.88454      -0.19188       0.45838
                        -----------------------------------------
Magnitude (a.u.)       :      1.94895
Magnitude (Debye)      :      4.95384

                             ****ORCA TERMINATED NORMALLY****
TOTAL RUN TIME: 0 days 0 hours 3 minutes 30 seconds 209 msec
