                         Program Version 4.0.1.2 - RELEASE -
|  1> ! MP2 6-311G(d) Opt NoFrozenCore ExtremeSCF
|  2>
|  3> %geom
|  4>  MaxIter 1
|  5>  inhess unit
|  6>  MaxStep 0.01
|  7>  Convergence tight
|  8>  Trust 0.1
|  9> end
| 10>
| 11> %mp2 MaxCore 5000
| 12> end
| 13>
| 14> *xyzfile -1 1 inp.xyz
| 15>
| 16>                          ****END OF INPUT****
 Total Charge           Charge          ....   -1
 Multiplicity           Mult            ....    1
 Number of Electrons    NEL             ....   68
MP2 TOTAL ENERGY:    -1092.818011735 Eh
FINAL SINGLE POINT ENERGY     -1092.818011734660
                    ***********************HURRAY********************

CARTESIAN COORDINATES (ANGSTROEM)
---------------------------------
  C     -0.271167   -0.124304   -0.178261
  C     -0.231269   -0.094298    1.190973
  Cl     2.169214    0.138568   -0.997814
  Cl    -3.127043    0.437450    1.592914
  H     -1.664488    0.087287    1.235178
  H     -0.343802    0.831824   -0.685395
  H     -0.147955   -1.047231    1.716636
  C     -0.681473   -1.332940   -0.948439
  H     -0.239431   -1.308024   -1.942808
  H     -0.361476   -2.246764   -0.445412
  H     -1.775292   -1.347758   -1.043626
  N      0.299176    1.042762    1.895204
  H     -0.407953    1.758767    2.013685
  H      1.056032    1.413186    1.327437

 Multiplicity           Mult            ....    1
 Number of Electrons    NEL             ....   68
 Basis Dimension        Dim             ....  148

ORBITAL ENERGIES
----------------

  NO   OCC          E(Eh)            E(eV)
   0   2.0000    -104.637779     -2847.3387
   1   2.0000    -104.564727     -2845.3509
   2   2.0000     -15.414106      -419.4392
   3   2.0000     -11.176713      -304.1338
   4   2.0000     -11.123232      -302.6785
   5   2.0000     -11.122061      -302.6467
   6   2.0000     -10.364447      -282.0309
   7   2.0000     -10.290735      -280.0251
   8   2.0000      -7.832116      -213.1227
   9   2.0000      -7.830455      -213.0775
  10   2.0000      -7.830450      -213.0774
  11   2.0000      -7.757771      -211.0997
  12   2.0000      -7.757341      -211.0880
  13   2.0000      -7.757293      -211.0867
  14   2.0000      -1.070952       -29.1421
  15   2.0000      -0.953366       -25.9424
  16   2.0000      -0.895081       -24.3564
  17   2.0000      -0.809854       -22.0372
  18   2.0000      -0.803172       -21.8554
  19   2.0000      -0.663067       -18.0430
  20   2.0000      -0.545482       -14.8433
  21   2.0000      -0.528986       -14.3944
  22   2.0000      -0.497059       -13.5257
  23   2.0000      -0.473029       -12.8718
  24   2.0000      -0.435294       -11.8449
  25   2.0000      -0.413782       -11.2596
  26   2.0000      -0.404038       -10.9944
  27   2.0000      -0.287464        -7.8223
  28   2.0000      -0.283296        -7.7089
  29   2.0000      -0.281838        -7.6692
  30   2.0000      -0.257100        -6.9961
  31   2.0000      -0.216040        -5.8787
  32   2.0000      -0.214658        -5.8411
  33   2.0000      -0.179502        -4.8845
  34   0.0000       0.233350         6.3498
  35   0.0000       0.280006         7.6194
  36   0.0000       0.293404         7.9839
  37   0.0000       0.313461         8.5297
  38   0.0000       0.344657         9.3786

MULLIKEN ATOMIC CHARGES
-----------------------
   0 C :   -0.119603
   1 C :   -0.221080
   2 Cl:   -0.779254
   3 Cl:   -0.572674
   4 H :    0.290225
   5 H :    0.240278
   6 H :    0.223688
   7 C :   -0.660879
   8 H :    0.257232
   9 H :    0.220472
  10 H :    0.224435
  11 N :   -0.792168
  12 H :    0.326869
  13 H :    0.362459
Sum of atomic charges:   -1.0000000

LOEWDIN ATOMIC CHARGES
----------------------
   0 C :   -0.046315
   1 C :   -0.229707
   2 Cl:   -0.728644
   3 Cl:   -0.479852
   4 H :    0.170730
   5 H :    0.120620
   6 H :    0.108929
   7 C :   -0.319356
   8 H :    0.130688
   9 H :    0.117674
  10 H :    0.121546
  11 N :   -0.368233
  12 H :    0.195393
  13 H :    0.206527

  Mayer bond orders larger than 0.1
B(  0-C ,  1-C ) :   1.3932 B(  0-C ,  2-Cl) :   0.2469 B(  0-C ,  5-H ) :   0.8915
B(  0-C ,  7-C ) :   0.9202 B(  1-C ,  4-H ) :   0.2939 B(  1-C ,  6-H ) :   0.8972
B(  1-C , 11-N ) :   0.9051 B(  3-Cl,  4-H ) :   0.4680 B(  7-C ,  8-H ) :   0.8882
B(  7-C ,  9-H ) :   0.9059 B(  7-C , 10-H ) :   0.8787 B( 11-N , 12-H ) :   0.8149
B( 11-N , 13-H ) :   0.7969

MP2 TOTAL ENERGY:    -1092.818012297 Eh
FINAL SINGLE POINT ENERGY     -1092.818012297031

DIPOLE MOMENT
-------------
                                X             Y             Z
Electronic contribution:     -0.81619       2.78801       0.83974
Nuclear contribution   :     -0.56484      -3.05436      -0.64051
                        -----------------------------------------
Total Dipole Moment    :     -1.38103      -0.26635       0.19923
                        -----------------------------------------
Magnitude (a.u.)       :      1.42052
Magnitude (Debye)      :      3.61068

                             ****ORCA TERMINATED NORMALLY****
TOTAL RUN TIME: 0 days 0 hours 6 minutes 25 seconds 203 msec
