                         Program Version 4.0.1.2 - RELEASE -
|  1> ! MP2 6-311G(d) Opt NoFrozenCore ExtremeSCF
|  2>
|  3> %geom
|  4>  MaxIter 1
|  5>  inhess unit
|  6>  MaxStep 0.01
|  7>  Convergence tight
|  8>  Trust 0.1
|  9> end
| 10>
| 11> %mp2 MaxCore 5000
| 12> end
| 13>
| 14> *xyzfile -1 1 inp.xyz
| 15>
| 16>                          ****END OF INPUT****

CARTESIAN COORDINATES (ANGSTROEM)
---------------------------------
  C     -0.279866   -0.124350   -0.173102
  C     -0.224711   -0.095434    1.189021
  Cl     2.171971    0.139124   -0.998983
  Cl    -3.126360    0.437340    1.592079
  H     -1.738844    0.102778    1.237724
  H     -0.336531    0.830902   -0.684251
  H     -0.159368   -1.046196    1.721389
  C     -0.682973   -1.333403   -0.948061
  H     -0.233696   -1.306610   -1.939312
  H     -0.361545   -2.247007   -0.444970
  H     -1.775899   -1.355406   -1.052181
  N      0.298850    1.042500    1.895497
  H     -0.407036    1.760134    2.012828
  H      1.054796    1.413157    1.325753

 Total Charge           Charge          ....   -1
 Multiplicity           Mult            ....    1
 Number of Electrons    NEL             ....   68
 Basis Dimension        Dim             ....  148

ORBITAL ENERGIES
----------------

  NO   OCC          E(Eh)            E(eV)
   0   2.0000    -104.657642     -2847.8792
   1   2.0000    -104.553950     -2845.0576
   2   2.0000     -15.411557      -419.3698
   3   2.0000     -11.159541      -303.6665
   4   2.0000     -11.117246      -302.5156
   5   2.0000     -11.115403      -302.4655
   6   2.0000     -10.384493      -282.5764
   7   2.0000     -10.280139      -279.7368
   8   2.0000      -7.852376      -213.6740
   9   2.0000      -7.850361      -213.6192
  10   2.0000      -7.850353      -213.6190
  11   2.0000      -7.747139      -210.8104
  12   2.0000      -7.746777      -210.8005
  13   2.0000      -7.746728      -210.7992
  14   2.0000      -1.066235       -29.0137
  15   2.0000      -0.945847       -25.7378
  16   2.0000      -0.917436       -24.9647
  17   2.0000      -0.802295       -21.8316
  18   2.0000      -0.793561       -21.5939
  19   2.0000      -0.654539       -17.8109
  20   2.0000      -0.541467       -14.7341
  21   2.0000      -0.522877       -14.2282
  22   2.0000      -0.490502       -13.3472
  23   2.0000      -0.467917       -12.7327
  24   2.0000      -0.436039       -11.8652
  25   2.0000      -0.417605       -11.3636
  26   2.0000      -0.396609       -10.7923
  27   2.0000      -0.301616        -8.2074
  28   2.0000      -0.300771        -8.1844
  29   2.0000      -0.283415        -7.7121
  30   2.0000      -0.253399        -6.8953
  31   2.0000      -0.206673        -5.6239
  32   2.0000      -0.205242        -5.5849
  33   2.0000      -0.171390        -4.6638
  34   0.0000       0.245441         6.6788
  35   0.0000       0.282780         7.6948
  36   0.0000       0.295379         8.0377
  37   0.0000       0.315230         8.5778
  38   0.0000       0.347224         9.4485

MULLIKEN ATOMIC CHARGES
-----------------------
   0 C :   -0.123388
   1 C :   -0.218568
   2 Cl:   -0.805940
   3 Cl:   -0.522673
   4 H :    0.293774
   5 H :    0.234836
   6 H :    0.218740
   7 C :   -0.660787
   8 H :    0.256374
   9 H :    0.218137
  10 H :    0.215458
  11 N :   -0.793062
  12 H :    0.322777
  13 H :    0.364324
Sum of atomic charges:   -1.0000000

LOEWDIN ATOMIC CHARGES
----------------------
   0 C :   -0.066799
   1 C :   -0.225916
   2 Cl:   -0.753817
   3 Cl:   -0.411753
   4 H :    0.161358
   5 H :    0.117620
   6 H :    0.105673
   7 C :   -0.319255
   8 H :    0.129684
   9 H :    0.116204
  10 H :    0.115922
  11 N :   -0.369335
  12 H :    0.192805
  13 H :    0.207608

  Mayer bond orders larger than 0.1
B(  0-C ,  1-C ) :   1.4476 B(  0-C ,  2-Cl) :   0.2071 B(  0-C ,  5-H ) :   0.8951
B(  0-C ,  7-C ) :   0.9172 B(  1-C ,  4-H ) :   0.2387 B(  1-C ,  6-H ) :   0.8998
B(  1-C , 11-N ) :   0.9049 B(  3-Cl,  4-H ) :   0.5231 B(  7-C ,  8-H ) :   0.8889
B(  7-C ,  9-H ) :   0.9072 B(  7-C , 10-H ) :   0.8835 B( 11-N , 12-H ) :   0.8168
B( 11-N , 13-H ) :   0.7956

MP2 TOTAL ENERGY:    -1092.818301454 Eh
FINAL SINGLE POINT ENERGY     -1092.818301454246

DIPOLE MOMENT
-------------
                                X             Y             Z
Electronic contribution:     -1.20197       2.85027       1.07572
Nuclear contribution   :     -0.62889      -3.05013      -0.64444
                        -----------------------------------------
Total Dipole Moment    :     -1.83086      -0.19986       0.43129
                        -----------------------------------------
Magnitude (a.u.)       :      1.89156
Magnitude (Debye)      :      4.80797

                             ****ORCA TERMINATED NORMALLY****
TOTAL RUN TIME: 0 days 0 hours 3 minutes 33 seconds 878 msec
