                         Program Version 4.0.1.2 - RELEASE -
|  1> ! MP2 6-311G(d) Opt NoFrozenCore ExtremeSCF
|  2>
|  3> %geom
|  4>  MaxIter 1
|  5>  inhess unit
|  6>  MaxStep 0.01
|  7>  Convergence tight
|  8>  Trust 0.1
|  9> end
| 10>
| 11> %mp2 MaxCore 5000
| 12> end
| 13>
| 14> *xyzfile -1 1 inp.xyz
| 15>
| 16>                          ****END OF INPUT****

CARTESIAN COORDINATES (ANGSTROEM)
---------------------------------
  C     -0.259118   -0.124403   -0.185239
  C     -0.240122   -0.092850    1.193987
  Cl     2.164818    0.137951   -0.996194
  Cl    -3.127454    0.437762    1.592151
  H     -1.561488    0.065895    1.230916
  H     -0.354226    0.832927   -0.686954
  H     -0.131805   -1.048706    1.710473
  C     -0.679640   -1.332365   -0.948677
  H     -0.248231   -1.309322   -1.947622
  H     -0.361070   -2.246536   -0.446190
  H     -1.774704   -1.337485   -1.031096
  N      0.299686    1.043127    1.895085
  H     -0.409231    1.756809    2.015195
  H      1.057800    1.413343    1.330098

 Total Charge           Charge          ....   -1
 Multiplicity           Mult            ....    1
 Number of Electrons    NEL             ....   68
 Basis Dimension        Dim             ....  148

ORBITAL ENERGIES
----------------

  NO   OCC          E(Eh)            E(eV)
   0   2.0000    -104.610475     -2846.5957
   1   2.0000    -104.580341     -2845.7758
   2   2.0000     -15.417005      -419.5180
   3   2.0000     -11.199189      -304.7454
   4   2.0000     -11.130820      -302.8850
   5   2.0000     -11.129446      -302.8476
   6   2.0000     -10.337185      -281.2891
   7   2.0000     -10.306069      -280.4424
   8   2.0000      -7.804612      -212.3743
   9   2.0000      -7.803383      -212.3408
  10   2.0000      -7.803380      -212.3408
  11   2.0000      -7.773158      -211.5184
  12   2.0000      -7.772624      -211.5039
  13   2.0000      -7.772575      -211.5025
  14   2.0000      -1.077264       -29.3139
  15   2.0000      -0.964176       -26.2366
  16   2.0000      -0.866345       -23.5744
  17   2.0000      -0.820296       -22.3214
  18   2.0000      -0.815901       -22.2018
  19   2.0000      -0.674530       -18.3549
  20   2.0000      -0.552166       -15.0252
  21   2.0000      -0.536256       -14.5923
  22   2.0000      -0.506076       -13.7710
  23   2.0000      -0.480491       -13.0748
  24   2.0000      -0.441588       -12.0162
  25   2.0000      -0.415468       -11.3055
  26   2.0000      -0.405681       -11.0391
  27   2.0000      -0.287897        -7.8341
  28   2.0000      -0.260863        -7.0984
  29   2.0000      -0.259956        -7.0738
  30   2.0000      -0.258724        -7.0402
  31   2.0000      -0.229437        -6.2433
  32   2.0000      -0.228124        -6.2076
  33   2.0000      -0.190191        -5.1754
  34   0.0000       0.218428         5.9437
  35   0.0000       0.276170         7.5150
  36   0.0000       0.290030         7.8921
  37   0.0000       0.311387         8.4733
  38   0.0000       0.341773         9.3001

MULLIKEN ATOMIC CHARGES
-----------------------
   0 C :   -0.116152
   1 C :   -0.224947
   2 Cl:   -0.735940
   3 Cl:   -0.650326
   4 H :    0.293715
   5 H :    0.248323
   6 H :    0.227864
   7 C :   -0.661193
   8 H :    0.258322
   9 H :    0.224104
  10 H :    0.237695
  11 N :   -0.792488
  12 H :    0.332265
  13 H :    0.358760
Sum of atomic charges:   -1.0000000

LOEWDIN ATOMIC CHARGES
----------------------
   0 C :   -0.014545
   1 C :   -0.237265
   2 Cl:   -0.687699
   3 Cl:   -0.575994
   4 H :    0.178888
   5 H :    0.125112
   6 H :    0.112736
   7 C :   -0.319561
   8 H :    0.132072
   9 H :    0.119898
  10 H :    0.129918
  11 N :   -0.366733
  12 H :    0.198782
  13 H :    0.204391

  Mayer bond orders larger than 0.1
B(  0-C ,  1-C ) :   1.3111 B(  0-C ,  2-Cl) :   0.3142 B(  0-C ,  5-H ) :   0.8859
B(  0-C ,  7-C ) :   0.9248 B(  1-C ,  4-H ) :   0.3836 B(  1-C ,  6-H ) :   0.8949
B(  1-C , 11-N ) :   0.9042 B(  3-Cl,  4-H ) :   0.3914 B(  7-C ,  8-H ) :   0.8873
B(  7-C ,  9-H ) :   0.9041 B(  7-C , 10-H ) :   0.8711 B( 11-N , 12-H ) :   0.8124
B( 11-N , 13-H ) :   0.7996

MP2 TOTAL ENERGY:    -1092.818581223 Eh
FINAL SINGLE POINT ENERGY     -1092.818581223122

DIPOLE MOMENT
-------------
                                X             Y             Z
Electronic contribution:     -0.25667       2.69671       0.47744
Nuclear contribution   :     -0.44843      -3.05968      -0.64045
                        -----------------------------------------
Total Dipole Moment    :     -0.70510      -0.36297      -0.16300
                        -----------------------------------------
Magnitude (a.u.)       :      0.80962
Magnitude (Debye)      :      2.05790

                             ****ORCA TERMINATED NORMALLY****
TOTAL RUN TIME: 0 days 0 hours 3 minutes 42 seconds 439 msec
