                         Program Version 4.0.1.2 - RELEASE -
|  1> ! MP2 6-311G(d) Opt NoFrozenCore ExtremeSCF
|  2>
|  3> %geom
|  4>  MaxIter 1
|  5>  inhess unit
|  6>  MaxStep 0.01
|  7>  Convergence tight
|  8>  Trust 0.1
|  9> end
| 10>
| 11> %mp2 MaxCore 5000
| 12> end
| 13>
| 14> *xyzfile -1 1 inp.xyz
| 15>
| 16>                          ****END OF INPUT****
 Total Charge           Charge          ....   -1
 Multiplicity           Mult            ....    1
 Number of Electrons    NEL             ....   68
MP2 TOTAL ENERGY:    -1092.818109505 Eh
FINAL SINGLE POINT ENERGY     -1092.818109504701
                    ***********************HURRAY********************

CARTESIAN COORDINATES (ANGSTROEM)
---------------------------------
  C     -0.275856   -0.124309   -0.175504
  C     -0.227848   -0.094900    1.189711
  Cl     2.171388    0.139041   -0.998778
  Cl    -3.128360    0.437915    1.594167
  H     -1.703233    0.095311    1.236965
  H     -0.339727    0.831303   -0.684555
  H     -0.153931   -1.046662    1.718888
  C     -0.682002   -1.333190   -0.948452
  H     -0.235795   -1.307260   -1.940987
  H     -0.361254   -2.246851   -0.445288
  H     -1.775355   -1.352180   -1.048502
  N      0.299337    1.042472    1.895057
  H     -0.407056    1.759398    2.012975
  H      1.055623    1.412939    1.326154

 Multiplicity           Mult            ....    1
 Number of Electrons    NEL             ....   68
 Basis Dimension        Dim             ....  148

ORBITAL ENERGIES
----------------

  NO   OCC          E(Eh)            E(eV)
   0   2.0000    -104.648153     -2847.6210
   1   2.0000    -104.559065     -2845.1968
   2   2.0000     -15.412903      -419.4064
   3   2.0000     -11.167931      -303.8948
   4   2.0000     -11.120414      -302.6019
   5   2.0000     -11.118701      -302.5552
   6   2.0000     -10.374860      -282.3143
   7   2.0000     -10.285168      -279.8737
   8   2.0000      -7.842632      -213.4089
   9   2.0000      -7.840798      -213.3590
  10   2.0000      -7.840792      -213.3588
  11   2.0000      -7.752185      -210.9477
  12   2.0000      -7.751792      -210.9370
  13   2.0000      -7.751744      -210.9357
  14   2.0000      -1.068648       -29.0794
  15   2.0000      -0.949369       -25.8337
  16   2.0000      -0.906498       -24.6671
  17   2.0000      -0.806080       -21.9345
  18   2.0000      -0.798170       -21.7193
  19   2.0000      -0.658784       -17.9264
  20   2.0000      -0.543366       -14.7857
  21   2.0000      -0.526014       -14.3136
  22   2.0000      -0.493717       -13.4347
  23   2.0000      -0.470329       -12.7983
  24   2.0000      -0.434555       -11.8248
  25   2.0000      -0.416357       -11.3296
  26   2.0000      -0.400435       -10.8964
  27   2.0000      -0.293497        -7.9865
  28   2.0000      -0.292283        -7.9534
  29   2.0000      -0.284061        -7.7297
  30   2.0000      -0.255369        -6.9489
  31   2.0000      -0.211129        -5.7451
  32   2.0000      -0.209724        -5.7069
  33   2.0000      -0.175449        -4.7742
  34   0.0000       0.239326         6.5124
  35   0.0000       0.281374         7.6566
  36   0.0000       0.294439         8.0121
  37   0.0000       0.314276         8.5519
  38   0.0000       0.345889         9.4121

MULLIKEN ATOMIC CHARGES
-----------------------
   0 C :   -0.121028
   1 C :   -0.219776
   2 Cl:   -0.793862
   3 Cl:   -0.546347
   4 H :    0.291246
   5 H :    0.237513
   6 H :    0.221396
   7 C :   -0.660932
   8 H :    0.256884
   9 H :    0.219269
  10 H :    0.219743
  11 N :   -0.792466
  12 H :    0.324817
  13 H :    0.363544
Sum of atomic charges:   -1.0000000

LOEWDIN ATOMIC CHARGES
----------------------
   0 C :   -0.056940
   1 C :   -0.227378
   2 Cl:   -0.742497
   3 Cl:   -0.445067
   4 H :    0.166485
   5 H :    0.119090
   6 H :    0.107336
   7 C :   -0.319289
   8 H :    0.130216
   9 H :    0.116919
  10 H :    0.118616
  11 N :   -0.368750
  12 H :    0.194111
  13 H :    0.207148

  Mayer bond orders larger than 0.1
B(  0-C ,  1-C ) :   1.4218 B(  0-C ,  2-Cl) :   0.2251 B(  0-C ,  5-H ) :   0.8934
B(  0-C ,  7-C ) :   0.9186 B(  1-C ,  4-H ) :   0.2644 B(  1-C ,  6-H ) :   0.8984
B(  1-C , 11-N ) :   0.9051 B(  3-Cl,  4-H ) :   0.4965 B(  7-C ,  8-H ) :   0.8885
B(  7-C ,  9-H ) :   0.9066 B(  7-C , 10-H ) :   0.8812 B( 11-N , 12-H ) :   0.8159
B( 11-N , 13-H ) :   0.7961

MP2 TOTAL ENERGY:    -1092.818124189 Eh
FINAL SINGLE POINT ENERGY     -1092.818124188633

DIPOLE MOMENT
-------------
                                X             Y             Z
Electronic contribution:     -1.01812       2.82015       0.96429
Nuclear contribution   :     -0.59915      -3.05208      -0.64191
                        -----------------------------------------
Total Dipole Moment    :     -1.61727      -0.23193       0.32238
                        -----------------------------------------
Magnitude (a.u.)       :      1.66531
Magnitude (Debye)      :      4.23289

                             ****ORCA TERMINATED NORMALLY****
TOTAL RUN TIME: 0 days 0 hours 6 minutes 7 seconds 558 msec
