                         Program Version 4.0.1.2 - RELEASE -
|  1> ! MP2 6-311G(d) Opt NoFrozenCore ExtremeSCF
|  2>
|  3> %geom
|  4>  MaxIter 1
|  5>  inhess unit
|  6>  MaxStep 0.01
|  7>  Convergence tight
|  8>  Trust 0.1
|  9> end
| 10>
| 11> %mp2 MaxCore 5000
| 12> end
| 13>
| 14> *xyzfile -1 1 inp.xyz
| 15>
| 16>                          ****END OF INPUT****

CARTESIAN COORDINATES (ANGSTROEM)
---------------------------------
  C     -0.260210   -0.124400   -0.184600
  C     -0.239311   -0.092986    1.193725
  Cl     2.165195    0.138012   -0.996341
  Cl    -3.127396    0.437740    1.592147
  H     -1.570822    0.067836    1.231274
  H     -0.353295    0.832820   -0.686811
  H     -0.133256   -1.048574    1.711047
  C     -0.679815   -1.332419   -0.948645
  H     -0.247466   -1.309180   -1.947184
  H     -0.361095   -2.246561   -0.446126
  H     -1.774767   -1.338428   -1.032205
  N      0.299642    1.043094    1.895107
  H     -0.409116    1.756984    2.015070
  H      1.057642    1.413333    1.329869

 Total Charge           Charge          ....   -1
 Multiplicity           Mult            ....    1
 Number of Electrons    NEL             ....   68
 Basis Dimension        Dim             ....  148

ORBITAL ENERGIES
----------------

  NO   OCC          E(Eh)            E(eV)
   0   2.0000    -104.612838     -2846.6601
   1   2.0000    -104.578934     -2845.7375
   2   2.0000     -15.416784      -419.5120
   3   2.0000     -11.197284      -304.6936
   4   2.0000     -11.130074      -302.8647
   5   2.0000     -11.129026      -302.8362
   6   2.0000     -10.339538      -281.3531
   7   2.0000     -10.304688      -280.4048
   8   2.0000      -7.806985      -212.4389
   9   2.0000      -7.805720      -212.4044
  10   2.0000      -7.805716      -212.4043
  11   2.0000      -7.771773      -211.4807
  12   2.0000      -7.771248      -211.4664
  13   2.0000      -7.771200      -211.4651
  14   2.0000      -1.076718       -29.2990
  15   2.0000      -0.963256       -26.2115
  16   2.0000      -0.868712       -23.6389
  17   2.0000      -0.819328       -22.2950
  18   2.0000      -0.814896       -22.1745
  19   2.0000      -0.673533       -18.3278
  20   2.0000      -0.551518       -15.0076
  21   2.0000      -0.535681       -14.5766
  22   2.0000      -0.505312       -13.7502
  23   2.0000      -0.479846       -13.0573
  24   2.0000      -0.440946       -11.9987
  25   2.0000      -0.414769       -11.2864
  26   2.0000      -0.405872       -11.0443
  27   2.0000      -0.287756        -7.8302
  28   2.0000      -0.262092        -7.1319
  29   2.0000      -0.261966        -7.1285
  30   2.0000      -0.259370        -7.0578
  31   2.0000      -0.228240        -6.2107
  32   2.0000      -0.226921        -6.1748
  33   2.0000      -0.189301        -5.1512
  34   0.0000       0.219676         5.9777
  35   0.0000       0.276506         7.5241
  36   0.0000       0.290348         7.9008
  37   0.0000       0.311557         8.4779
  38   0.0000       0.341995         9.3062

MULLIKEN ATOMIC CHARGES
-----------------------
   0 C :   -0.116419
   1 C :   -0.224563
   2 Cl:   -0.740111
   3 Cl:   -0.643039
   4 H :    0.293035
   5 H :    0.247591
   6 H :    0.227632
   7 C :   -0.661146
   8 H :    0.258229
   9 H :    0.223763
  10 H :    0.236475
  11 N :   -0.792386
  12 H :    0.331795
  13 H :    0.359145
Sum of atomic charges:   -1.0000000

LOEWDIN ATOMIC CHARGES
----------------------
   0 C :   -0.017558
   1 C :   -0.236491
   2 Cl:   -0.691646
   3 Cl:   -0.567323
   4 H :    0.178419
   5 H :    0.124696
   6 H :    0.112430
   7 C :   -0.319540
   8 H :    0.131950
   9 H :    0.119692
  10 H :    0.129143
  11 N :   -0.366872
  12 H :    0.198486
  13 H :    0.204614

  Mayer bond orders larger than 0.1
B(  0-C ,  1-C ) :   1.3188 B(  0-C ,  2-Cl) :   0.3076 B(  0-C ,  5-H ) :   0.8865
B(  0-C ,  7-C ) :   0.9244 B(  1-C ,  4-H ) :   0.3749 B(  1-C ,  6-H ) :   0.8950
B(  1-C , 11-N ) :   0.9043 B(  3-Cl,  4-H ) :   0.3983 B(  7-C ,  8-H ) :   0.8874
B(  7-C ,  9-H ) :   0.9043 B(  7-C , 10-H ) :   0.8718 B( 11-N , 12-H ) :   0.8127
B( 11-N , 13-H ) :   0.7993

MP2 TOTAL ENERGY:    -1092.818479502 Eh
FINAL SINGLE POINT ENERGY     -1092.818479502249

DIPOLE MOMENT
-------------
                                X             Y             Z
Electronic contribution:     -0.30787       2.70512       0.51157
Nuclear contribution   :     -0.46035      -3.05935      -0.64023
                        -----------------------------------------
Total Dipole Moment    :     -0.76821      -0.35423      -0.12866
                        -----------------------------------------
Magnitude (a.u.)       :      0.85568
Magnitude (Debye)      :      2.17496

                             ****ORCA TERMINATED NORMALLY****
TOTAL RUN TIME: 0 days 0 hours 3 minutes 26 seconds 931 msec
