                         Program Version 4.0.1.2 - RELEASE -
|  1> ! MP2 6-311G(d) NoFrozenCore ExtremeSCF NumFreq
|  2>
|  3> %pal nprocs 1
|  4> end
|  5>
|  6> %mp2 MaxCore 5000
|  7> end
|  8>
|  9> %freq
| 10> restart true
| 11> end
| 12>
| 13> %geom
| 14> Calc_Hess true
| 15> NumHess true
| 16> end
| 17>
| 18> *xyzfile 0 1 inp.xyz
| 19>
| 20>                          ****END OF INPUT****

CARTESIAN COORDINATES (ANGSTROEM)
---------------------------------
  C     -0.201411   -0.109977   -0.260146
  C     -0.176513   -0.191332    1.265196
  Cl     1.441051    0.323406   -0.855796
  H     -1.171186   -0.519063    1.588434
  H     -0.846123    0.717447   -0.569997
  H      0.530885   -0.974161    1.555519
  C     -0.644411   -1.406118   -0.909342
  H     -0.645042   -1.323978   -1.996893
  H      0.025222   -2.221443   -0.627620
  H     -1.657123   -1.656340   -0.580430
  N      0.158784    1.019276    1.992523
  H     -0.498896    1.756374    1.769683
  H      1.080193    1.338896    1.721738

 Total Charge           Charge          ....    0
 Multiplicity           Mult            ....    1
 Number of Electrons    NEL             ....   50
 Basis Dimension        Dim             ....  122

ORBITAL ENERGIES
----------------

  NO   OCC          E(Eh)            E(eV)
   0   2.0000    -104.820175     -2852.3020
   1   2.0000     -15.540605      -422.8814
   2   2.0000     -11.300835      -307.5113
   3   2.0000     -11.264739      -306.5291
   4   2.0000     -11.236790      -305.7686
   5   2.0000     -10.547366      -287.0084
   6   2.0000      -8.015469      -218.1120
   7   2.0000      -8.012822      -218.0400
   8   2.0000      -8.012751      -218.0380
   9   2.0000      -1.201561       -32.6961
  10   2.0000      -1.134446       -30.8698
  11   2.0000      -1.015832       -27.6422
  12   2.0000      -0.920897       -25.0589
  13   2.0000      -0.806583       -21.9482
  14   2.0000      -0.690819       -18.7981
  15   2.0000      -0.643567       -17.5124
  16   2.0000      -0.620227       -16.8772
  17   2.0000      -0.597424       -16.2567
  18   2.0000      -0.549498       -14.9526
  19   2.0000      -0.540719       -14.7137
  20   2.0000      -0.526277       -14.3207
  21   2.0000      -0.495455       -13.4820
  22   2.0000      -0.441413       -12.0115
  23   2.0000      -0.435291       -11.8449
  24   2.0000      -0.396220       -10.7817
  25   0.0000       0.145750         3.9661
  26   0.0000       0.166608         4.5336
  27   0.0000       0.175933         4.7874
  28   0.0000       0.188183         5.1207
  29   0.0000       0.202631         5.5139

MULLIKEN ATOMIC CHARGES
-----------------------
   0 C :   -0.328433
   1 C :   -0.267104
   2 Cl:   -0.097190
   3 H :    0.225282
   4 H :    0.242472
   5 H :    0.235482
   6 C :   -0.633483
   7 H :    0.248293
   8 H :    0.239012
   9 H :    0.227489
  10 N :   -0.750495
  11 H :    0.318371
  12 H :    0.340303
Sum of atomic charges:   -0.0000000

LOEWDIN ATOMIC CHARGES
----------------------
   0 C :   -0.252806
   1 C :   -0.213290
   2 Cl:    0.052100
   3 H :    0.114362
   4 H :    0.110192
   5 H :    0.115123
   6 C :   -0.326213
   7 H :    0.123918
   8 H :    0.122657
   9 H :    0.120963
  10 N :   -0.360820
  11 H :    0.195715
  12 H :    0.198100

  Mayer bond orders larger than 0.1
B(  0-C ,  1-C ) :   0.8725 B(  0-C ,  2-Cl) :   0.9483 B(  0-C ,  4-H ) :   0.8749
B(  0-C ,  6-C ) :   0.8937 B(  1-C ,  3-H ) :   0.8911 B(  1-C ,  5-H ) :   0.8901
B(  1-C , 10-N ) :   0.9365 B(  6-C ,  7-H ) :   0.8982 B(  6-C ,  8-H ) :   0.8943
B(  6-C ,  9-H ) :   0.8913 B( 10-N , 11-H ) :   0.8250 B( 10-N , 12-H ) :   0.8135

MP2 TOTAL ENERGY:     -633.103758140 Eh
FINAL SINGLE POINT ENERGY      -633.103758140260

DIPOLE MOMENT
-------------
                                X             Y             Z
Electronic contribution:      6.68074       3.20698      -3.96039
Nuclear contribution   :     -7.41279      -3.28613       3.73762
                        -----------------------------------------
Total Dipole Moment    :     -0.73204      -0.07916      -0.22277
                        -----------------------------------------
Magnitude (a.u.)       :      0.76927
Magnitude (Debye)      :      1.95534

VIBRATIONAL FREQUENCIES
-----------------------

   0:         0.00 cm**-1
   1:         0.00 cm**-1
   2:         0.00 cm**-1
   3:         0.00 cm**-1
   4:         0.00 cm**-1
   5:         0.00 cm**-1
   6:       138.11 cm**-1
   7:       228.50 cm**-1
   8:       252.88 cm**-1
   9:       311.30 cm**-1
  10:       330.21 cm**-1
  11:       415.91 cm**-1
  12:       495.77 cm**-1
  13:       663.19 cm**-1
  14:       892.56 cm**-1
  15:       896.66 cm**-1
  16:       960.00 cm**-1
  17:      1036.52 cm**-1
  18:      1120.48 cm**-1
  19:      1148.03 cm**-1
  20:      1180.09 cm**-1
  21:      1229.12 cm**-1
  22:      1340.96 cm**-1
  23:      1356.10 cm**-1
  24:      1421.84 cm**-1
  25:      1433.05 cm**-1
  26:      1449.34 cm**-1
  27:      1504.75 cm**-1
  28:      1524.18 cm**-1
  29:      1534.93 cm**-1
  30:      1746.37 cm**-1
  31:      3079.52 cm**-1
  32:      3084.55 cm**-1
  33:      3118.62 cm**-1
  34:      3146.20 cm**-1
  35:      3172.99 cm**-1
  36:      3189.93 cm**-1
  37:      3554.74 cm**-1
  38:      3652.89 cm**-1

IR SPECTRUM
-----------

 Mode    freq (cm**-1)   T**2         TX         TY         TZ
-------------------------------------------------------------------
   6:       138.11    2.709644  (  1.458818  -0.566487  -0.510478)
   7:       228.50    5.226457  (  1.535007   1.174551   1.220917)
   8:       252.88    2.142680  ( -1.402615  -0.006132  -0.418704)
   9:       311.30   45.096953  (  6.179184  -2.607896  -0.336925)
  10:       330.21    0.837667  ( -0.914443   0.005074  -0.037892)
  11:       415.91   14.572533  (  3.719307   0.856705  -0.073115)
  12:       495.77    2.120672  (  0.192000  -1.000705  -1.040384)
  13:       663.19   20.806891  (  3.629230   2.652540  -0.774345)
  14:       892.56  108.595409  ( -0.980001   3.390325   9.805137)
  15:       896.66    2.888384  ( -0.187974   1.206115   1.182513)
  16:       960.00  158.062528  (  1.899651   3.849767  11.816647)
  17:      1036.52   16.372405  (  2.627308   0.479649  -3.039670)
  18:      1120.48   10.050437  ( -1.748723  -2.317268  -1.273843)
  19:      1148.03    3.166237  (  1.367967   1.122969   0.183964)
  20:      1180.09    2.135964  ( -0.857391   0.975845  -0.669756)
  21:      1229.12    1.203490  ( -0.979985  -0.443542  -0.215382)
  22:      1340.96    2.644893  (  0.613960   0.777237   1.289902)
  23:      1356.10   35.111297  ( -5.468211  -0.795769   2.139326)
  24:      1421.84    4.084070  ( -0.450579   0.999306   1.697774)
  25:      1433.05    0.786790  (  0.294676   0.650876  -0.525658)
  26:      1449.34   12.515635  (  0.748737   3.115717   1.499112)
  27:      1504.75    2.794858  ( -0.287284  -1.644237   0.093870)
  28:      1524.18   10.238309  (  0.855353  -1.463014   2.714087)
  29:      1534.93    6.933921  (  2.325419  -1.228095  -0.134653)
  30:      1746.37   35.216096  (  1.239513   5.352258  -2.243444)
  31:      3079.52    4.487954  (  0.616545   1.308138  -1.548095)
  32:      3084.55   37.395291  (  3.270338   5.148779  -0.436189)
  33:      3118.62    7.194563  ( -1.595881   2.155505  -0.039026)
  34:      3146.20   20.421751  (  3.960055  -2.176548   0.048557)
  35:      3172.99   21.165165  ( -4.216357   1.313101   1.289677)
  36:      3189.93   13.529850  (  1.197204  -1.632399   3.071128)
  37:      3554.74    0.629610  ( -0.777362  -0.061426  -0.146783)
  38:      3652.89    1.956785  (  1.356150   0.214100  -0.267962)

--------------------------
THERMOCHEMISTRY AT 298.15K
--------------------------

Temperature         ... 298.15 K
Pressure            ... 1.00 atm
Total Mass          ... 93.56 AMU

Throughout the following assumptions are being made:
  (1) The electronic state is orbitally nondegenerate
  (2) There are no thermally accessible electronically excited states
  (3) Hindered rotations indicated by low frequency modes are not
      treated as such but are treated as vibrations and this may
      cause some error
  (4) All equations used are the standard statistical mechanics
      equations for an ideal gas
  (5) All vibrations are strictly harmonic

freq.     138.11  E(vib)   ...       0.42
freq.     228.50  E(vib)   ...       0.32
freq.     252.88  E(vib)   ...       0.30
freq.     311.30  E(vib)   ...       0.25
freq.     330.21  E(vib)   ...       0.24
freq.     415.91  E(vib)   ...       0.18
freq.     495.77  E(vib)   ...       0.14
freq.     663.19  E(vib)   ...       0.08
freq.     892.56  E(vib)   ...       0.03
freq.     896.66  E(vib)   ...       0.03
freq.     960.00  E(vib)   ...       0.03
freq.    1036.52  E(vib)   ...       0.02
freq.    1120.48  E(vib)   ...       0.01
freq.    1148.03  E(vib)   ...       0.01
freq.    1180.09  E(vib)   ...       0.01
freq.    1229.12  E(vib)   ...       0.01
freq.    1340.96  E(vib)   ...       0.01
freq.    1356.10  E(vib)   ...       0.01
freq.    1421.84  E(vib)   ...       0.00
freq.    1433.05  E(vib)   ...       0.00
freq.    1449.34  E(vib)   ...       0.00
freq.    1504.75  E(vib)   ...       0.00
freq.    1524.18  E(vib)   ...       0.00
freq.    1534.93  E(vib)   ...       0.00
freq.    1746.37  E(vib)   ...       0.00
freq.    3079.52  E(vib)   ...       0.00
freq.    3084.55  E(vib)   ...       0.00
freq.    3118.62  E(vib)   ...       0.00
freq.    3146.20  E(vib)   ...       0.00
freq.    3172.99  E(vib)   ...       0.00
freq.    3189.93  E(vib)   ...       0.00
freq.    3554.74  E(vib)   ...       0.00
freq.    3652.89  E(vib)   ...       0.00

------------
INNER ENERGY
------------

The inner energy is: U= E(el) + E(ZPE) + E(vib) + E(rot) + E(trans)
    E(el)   - is the total energy from the electronic structure calculation
              = E(kin-el) + E(nuc-el) + E(el-el) + E(nuc-nuc)
    E(ZPE)  - the the zero temperature vibrational energy from the frequency calculation
    E(vib)  - the the finite temperature correction to E(ZPE) due to population
              of excited vibrational states
    E(rot)  - is the rotational thermal energy
    E(trans)- is the translational thermal energy

Summary of contributions to the inner energy U:
Electronic energy                ...   -633.10375826 Eh
Zero point energy                ...      0.11529867 Eh      72.35 kcal/mol
Thermal vibrational correction   ...      0.00341886 Eh       2.15 kcal/mol
Thermal rotational correction    ...      0.00141627 Eh       0.89 kcal/mol
Thermal translational correction ...      0.00141627 Eh       0.89 kcal/mol
-----------------------------------------------------------------------
Total thermal energy                   -632.98220819 Eh

Summary of corrections to the electronic energy:
(perhaps to be used in another calculation)
Total thermal correction                  0.00625140 Eh       3.92 kcal/mol
Non-thermal (ZPE) correction              0.11529867 Eh      72.35 kcal/mol
-----------------------------------------------------------------------
Total correction                          0.12155007 Eh      76.27 kcal/mol

--------
ENTHALPY
--------

The enthalpy is H = U + kB*T
                kB is Boltzmann's constant
Total free energy                 ...   -632.98220819 Eh
Thermal Enthalpy correction       ...      0.00094421 Eh       0.59 kcal/mol
-----------------------------------------------------------------------
Total Enthalpy                    ...   -632.98126399 Eh

Vibrational entropy computed according to the QRRHO of S. Grimme
Chem.Eur.J. 2012 18 9955

-------
ENTROPY
-------

The entropy contributions are T*S = T*(S(el)+S(vib)+S(rot)+S(trans)
     S(el)   - electronic entropy
     S(vib)  - vibrational entropy
     S(rot)  - rotational entropy
     S(trans)- translational entropy
The entropies will be listed as mutliplied by the temperature to get
units of energy

Electronic entropy                ...      0.00000000 Eh      0.00 kcal/mol
Vibrational entropy               ...      0.00557072 Eh      3.50 kcal/mol
Rotational entropy                ...      0.01168216 Eh      7.33 kcal/mol
Translational entropy             ...      0.01877692 Eh     11.78 kcal/mol
-----------------------------------------------------------------------
Final entropy term                ...      0.03602980 Eh     22.61 kcal/mol

CAUTION: The rotational entropy is not quite correctly treated here
         because it includes a symmetry number that is not yet correctly
         implemented in ORCA!
For a nonlinear molecule the correct rotational entropy is:
    S(rot) = R*(ln(qrot/sn)+1.5)
    R    = 8.31441 J/mol/K = 1.987191683e-3 kcal/mol/K
    qrot = 158167.8490723
    sn is the rotational symmetry number. We have assumed 3 here
       if it is different for your molecule then you should correct
       the printed rotational entropy by manually evaluating the equation
       as given above

For convenience we print out the resulting values for sn=1 - 12:
 sn= 1  qrot/sn=  158167.8491 T*S(rot)=     7.98 kcal/mol T*S(tot)=    23.26 kcal/mol
 sn= 2  qrot/sn=   79083.9245 T*S(rot)=     7.57 kcal/mol T*S(tot)=    22.85 kcal/mol
 sn= 3  qrot/sn=   52722.6164 T*S(rot)=     7.33 kcal/mol T*S(tot)=    22.61 kcal/mol
 sn= 4  qrot/sn=   39541.9623 T*S(rot)=     7.16 kcal/mol T*S(tot)=    22.44 kcal/mol
 sn= 5  qrot/sn=   31633.5698 T*S(rot)=     7.03 kcal/mol T*S(tot)=    22.31 kcal/mol
 sn= 6  qrot/sn=   26361.3082 T*S(rot)=     6.92 kcal/mol T*S(tot)=    22.20 kcal/mol
 sn= 7  qrot/sn=   22595.4070 T*S(rot)=     6.83 kcal/mol T*S(tot)=    22.11 kcal/mol
 sn= 8  qrot/sn=   19770.9811 T*S(rot)=     6.75 kcal/mol T*S(tot)=    22.03 kcal/mol
 sn= 9  qrot/sn=   17574.2055 T*S(rot)=     6.68 kcal/mol T*S(tot)=    21.96 kcal/mol
 sn=10  qrot/sn=   15816.7849 T*S(rot)=     6.62 kcal/mol T*S(tot)=    21.90 kcal/mol
 sn=11  qrot/sn=   14378.8954 T*S(rot)=     6.56 kcal/mol T*S(tot)=    21.84 kcal/mol
 sn=12  qrot/sn=   13180.6541 T*S(rot)=     6.51 kcal/mol T*S(tot)=    21.79 kcal/mol

-------------------
GIBBS FREE ENTHALPY
-------------------

The Gibbs free enthalpy is G = H - T*S

Total enthalpy                    ...   -632.98126399 Eh
Total entropy correction          ...     -0.03602980 Eh    -22.61 kcal/mol
-----------------------------------------------------------------------
Final Gibbs free enthalpy         ...   -633.01729378 Eh

For completeness - the Gibbs free enthalpy minus the electronic energy
G-E(el)                           ...      0.08646448 Eh     54.26 kcal/mol

                             ****ORCA TERMINATED NORMALLY****
TOTAL RUN TIME: 0 days 1 hours 23 minutes 13 seconds 957 msec
