                         Program Version 4.0.1.2 - RELEASE -
|  1> ! MP2 6-311G(d) Opt NoFrozenCore ExtremeSCF
|  2>
|  3> %geom
|  4>  MaxIter 1
|  5>  inhess unit
|  6>  MaxStep 0.01
|  7>  Convergence tight
|  8>  Trust 0.1
|  9> end
| 10>
| 11> %mp2 MaxCore 5000
| 12> end
| 13>
| 14> *xyzfile -1 1 inp.xyz
| 15>
| 16>                          ****END OF INPUT****
 Total Charge           Charge          ....   -1
 Multiplicity           Mult            ....    1
 Number of Electrons    NEL             ....   68
MP2 TOTAL ENERGY:    -1092.818227142 Eh
FINAL SINGLE POINT ENERGY     -1092.818227142071
                    ***********************HURRAY********************

CARTESIAN COORDINATES (ANGSTROEM)
---------------------------------
  C     -0.262695   -0.124388   -0.183614
  C     -0.236982   -0.093265    1.193523
  Cl     2.165491    0.137644   -0.996117
  Cl    -3.128331    0.436719    1.591414
  H     -1.597749    0.073442    1.232998
  H     -0.350871    0.832460   -0.687467
  H     -0.136733   -1.048121    1.712944
  C     -0.680350   -1.332610   -0.948749
  H     -0.245605   -1.309481   -1.946297
  H     -0.361726   -2.246691   -0.445890
  H     -1.774923   -1.339963   -1.035417
  N      0.299746    1.043374    1.895467
  H     -0.408817    1.757614    2.014846
  H      1.057615    1.413914    1.329870

 Multiplicity           Mult            ....    1
 Number of Electrons    NEL             ....   68
 Basis Dimension        Dim             ....  148

ORBITAL ENERGIES
----------------

  NO   OCC          E(Eh)            E(eV)
   0   2.0000    -104.619527     -2846.8421
   1   2.0000    -104.575169     -2845.6350
   2   2.0000     -15.416022      -419.4913
   3   2.0000     -11.191934      -304.5480
   4   2.0000     -11.127883      -302.8051
   5   2.0000     -11.127610      -302.7977
   6   2.0000     -10.346204      -281.5345
   7   2.0000     -10.300995      -280.3043
   8   2.0000      -7.813709      -212.6218
   9   2.0000      -7.812338      -212.5845
  10   2.0000      -7.812334      -212.5844
  11   2.0000      -7.768067      -211.3798
  12   2.0000      -7.767566      -211.3662
  13   2.0000      -7.767518      -211.3649
  14   2.0000      -1.074820       -29.2473
  15   2.0000      -0.960427       -26.1345
  16   2.0000      -0.875567       -23.8254
  17   2.0000      -0.816554       -22.2196
  18   2.0000      -0.811839       -22.0913
  19   2.0000      -0.670592       -18.2477
  20   2.0000      -0.549547       -14.9539
  21   2.0000      -0.533758       -14.5243
  22   2.0000      -0.502864       -13.6836
  23   2.0000      -0.477959       -13.0059
  24   2.0000      -0.439076       -11.9479
  25   2.0000      -0.412926       -11.2363
  26   2.0000      -0.406392       -11.0585
  27   2.0000      -0.287223        -7.8157
  28   2.0000      -0.267678        -7.2839
  29   2.0000      -0.267433        -7.2772
  30   2.0000      -0.259255        -7.0547
  31   2.0000      -0.225024        -6.1232
  32   2.0000      -0.223683        -6.0867
  33   2.0000      -0.186532        -5.0758
  34   0.0000       0.223271         6.0755
  35   0.0000       0.277498         7.5511
  36   0.0000       0.291244         7.9251
  37   0.0000       0.312093         8.4925
  38   0.0000       0.342710         9.3256

MULLIKEN ATOMIC CHARGES
-----------------------
   0 C :   -0.117599
   1 C :   -0.223854
   2 Cl:   -0.750442
   3 Cl:   -0.622877
   4 H :    0.291371
   5 H :    0.245473
   6 H :    0.226673
   7 C :   -0.660808
   8 H :    0.257816
   9 H :    0.222786
  10 H :    0.233151
  11 N :   -0.792136
  12 H :    0.330372
  13 H :    0.360075
Sum of atomic charges:   -1.0000000

LOEWDIN ATOMIC CHARGES
----------------------
   0 C :   -0.025952
   1 C :   -0.234642
   2 Cl:   -0.701300
   3 Cl:   -0.542944
   4 H :    0.176544
   5 H :    0.123457
   6 H :    0.111426
   7 C :   -0.319556
   8 H :    0.131528
   9 H :    0.119101
  10 H :    0.127018
  11 N :   -0.367410
  12 H :    0.197593
  13 H :    0.205135

  Mayer bond orders larger than 0.1
B(  0-C ,  1-C ) :   1.3393 B(  0-C ,  2-Cl) :   0.2909 B(  0-C ,  5-H ) :   0.8879
B(  0-C ,  7-C ) :   0.9231 B(  1-C ,  4-H ) :   0.3515 B(  1-C ,  6-H ) :   0.8955
B(  1-C , 11-N ) :   0.9046 B(  3-Cl,  4-H ) :   0.4174 B(  7-C ,  8-H ) :   0.8877
B(  7-C ,  9-H ) :   0.9047 B(  7-C , 10-H ) :   0.8738 B( 11-N , 12-H ) :   0.8134
B( 11-N , 13-H ) :   0.7986

MP2 TOTAL ENERGY:    -1092.818255692 Eh
FINAL SINGLE POINT ENERGY     -1092.818255692111

DIPOLE MOMENT
-------------
                                X             Y             Z
Electronic contribution:     -0.44413       2.72853       0.60266
Nuclear contribution   :     -0.49447      -3.05813      -0.63987
                        -----------------------------------------
Total Dipole Moment    :     -0.93861      -0.32961      -0.03721
                        -----------------------------------------
Magnitude (a.u.)       :      0.99549
Magnitude (Debye)      :      2.53034

                             ****ORCA TERMINATED NORMALLY****
TOTAL RUN TIME: 0 days 0 hours 5 minutes 39 seconds 638 msec
