                         Program Version 4.0.1.2 - RELEASE -
|  1> ! MP2 6-311G(d) Opt NoFrozenCore ExtremeSCF
|  2>
|  3> %geom
|  4>  MaxIter 1
|  5>  inhess unit
|  6>  MaxStep 0.01
|  7>  Convergence tight
|  8>  Trust 0.1
|  9> end
| 10>
| 11> %mp2 MaxCore 5000
| 12> end
| 13>
| 14> *xyzfile -1 1 inp.xyz
| 15>
| 16>                          ****END OF INPUT****
 Total Charge           Charge          ....   -1
 Multiplicity           Mult            ....    1
 Number of Electrons    NEL             ....   68
MP2 TOTAL ENERGY:    -1092.818068492 Eh
FINAL SINGLE POINT ENERGY     -1092.818068492004
                    ***********************HURRAY********************

CARTESIAN COORDINATES (ANGSTROEM)
---------------------------------
  C     -0.266370   -0.124338   -0.181235
  C     -0.234583   -0.093707    1.192370
  Cl     2.167072    0.138059   -0.996843
  Cl    -3.127214    0.437039    1.591957
  H     -1.626120    0.079330    1.233764
  H     -0.347856    0.832230   -0.686482
  H     -0.141673   -1.047759    1.714481
  C     -0.680863   -1.332734   -0.948560
  H     -0.242989   -1.308837   -1.944750
  H     -0.361641   -2.246709   -0.445640
  H     -1.775123   -1.343311   -1.038881
  N      0.299356    1.043094    1.895353
  H     -0.408573    1.758113    2.014356
  H      1.056793    1.413554    1.328804

 Multiplicity           Mult            ....    1
 Number of Electrons    NEL             ....   68
 Basis Dimension        Dim             ....  148

ORBITAL ENERGIES
----------------

  NO   OCC          E(Eh)            E(eV)
   0   2.0000    -104.627285     -2847.0532
   1   2.0000    -104.570642     -2845.5118
   2   2.0000     -15.415241      -419.4700
   3   2.0000     -11.185498      -304.3729
   4   2.0000     -11.125853      -302.7498
   5   2.0000     -11.125422      -302.7381
   6   2.0000     -10.353949      -281.7453
   7   2.0000     -10.296549      -280.1833
   8   2.0000      -7.821522      -212.8344
   9   2.0000      -7.820029      -212.7938
  10   2.0000      -7.820025      -212.7937
  11   2.0000      -7.763605      -211.2584
  12   2.0000      -7.763136      -211.2457
  13   2.0000      -7.763088      -211.2444
  14   2.0000      -1.073208       -29.2035
  15   2.0000      -0.957446       -26.0534
  16   2.0000      -0.883760       -24.0483
  17   2.0000      -0.813660       -22.1408
  18   2.0000      -0.808220       -21.9928
  19   2.0000      -0.667391       -18.1606
  20   2.0000      -0.547761       -14.9053
  21   2.0000      -0.531808       -14.4712
  22   2.0000      -0.500422       -13.6172
  23   2.0000      -0.475852       -12.9486
  24   2.0000      -0.437258       -11.8984
  25   2.0000      -0.412011       -11.2114
  26   2.0000      -0.406514       -11.0618
  27   2.0000      -0.286936        -7.8079
  28   2.0000      -0.274304        -7.4642
  29   2.0000      -0.273941        -7.4543
  30   2.0000      -0.258489        -7.0338
  31   2.0000      -0.221142        -6.0176
  32   2.0000      -0.219783        -5.9806
  33   2.0000      -0.183572        -4.9953
  34   0.0000       0.227500         6.1906
  35   0.0000       0.278578         7.5805
  36   0.0000       0.292210         7.9514
  37   0.0000       0.312668         8.5081
  38   0.0000       0.343501         9.3471

MULLIKEN ATOMIC CHARGES
-----------------------
   0 C :   -0.118389
   1 C :   -0.222566
   2 Cl:   -0.763266
   3 Cl:   -0.600839
   4 H :    0.290418
   5 H :    0.243209
   6 H :    0.225577
   7 C :   -0.660834
   8 H :    0.257574
   9 H :    0.221767
  10 H :    0.229354
  11 N :   -0.792072
  12 H :    0.328894
  13 H :    0.361171
Sum of atomic charges:   -1.0000000

LOEWDIN ATOMIC CHARGES
----------------------
   0 C :   -0.034915
   1 C :   -0.232403
   2 Cl:   -0.713477
   3 Cl:   -0.515700
   4 H :    0.174344
   5 H :    0.122224
   6 H :    0.110412
   7 C :   -0.319456
   8 H :    0.131171
   9 H :    0.118477
  10 H :    0.124629
  11 N :   -0.367747
  12 H :    0.196662
  13 H :    0.205779

  Mayer bond orders larger than 0.1
B(  0-C ,  1-C ) :   1.3630 B(  0-C ,  2-Cl) :   0.2712 B(  0-C ,  5-H ) :   0.8895
B(  0-C ,  7-C ) :   0.9218 B(  1-C ,  4-H ) :   0.3259 B(  1-C ,  6-H ) :   0.8961
B(  1-C , 11-N ) :   0.9049 B(  3-Cl,  4-H ) :   0.4391 B(  7-C ,  8-H ) :   0.8879
B(  7-C ,  9-H ) :   0.9053 B(  7-C , 10-H ) :   0.8759 B( 11-N , 12-H ) :   0.8140
B( 11-N , 13-H ) :   0.7978

MP2 TOTAL ENERGY:    -1092.818075747 Eh
FINAL SINGLE POINT ENERGY     -1092.818075746736

DIPOLE MOMENT
-------------
                                X             Y             Z
Electronic contribution:     -0.60579       2.75444       0.70689
Nuclear contribution   :     -0.52622      -3.05663      -0.63990
                        -----------------------------------------
Total Dipole Moment    :     -1.13201      -0.30219       0.06698
                        -----------------------------------------
Magnitude (a.u.)       :      1.17356
Magnitude (Debye)      :      2.98296

                             ****ORCA TERMINATED NORMALLY****
TOTAL RUN TIME: 0 days 0 hours 5 minutes 43 seconds 457 msec
