                         Program Version 4.0.1.2 - RELEASE -
|  1> ! MP2 6-311G(d) Opt NoFrozenCore ExtremeSCF
|  2>
|  3> %geom
|  4>  MaxIter 1
|  5>  inhess unit
|  6>  MaxStep 0.01
|  7>  Convergence tight
|  8>  Trust 0.1
|  9> end
| 10>
| 11> %mp2 MaxCore 5000
| 12> end
| 13>
| 14> *xyzfile -1 1 inp.xyz
| 15>
| 16>                          ****END OF INPUT****
 Total Charge           Charge          ....   -1
 Multiplicity           Mult            ....    1
 Number of Electrons    NEL             ....   68
MP2 TOTAL ENERGY:    -1092.818163239 Eh
FINAL SINGLE POINT ENERGY     -1092.818163239107
                    ***********************HURRAY********************

CARTESIAN COORDINATES (ANGSTROEM)
---------------------------------
  C     -0.263928   -0.124369   -0.182806
  C     -0.236193   -0.093412    1.193128
  Cl     2.166015    0.137786   -0.996358
  Cl    -3.127862    0.436829    1.591578
  H     -1.607158    0.075395    1.233222
  H     -0.349869    0.832391   -0.687122
  H     -0.138403   -1.048004    1.713448
  C     -0.680527   -1.332649   -0.948676
  H     -0.244739   -1.309263   -1.945772
  H     -0.361701   -2.246694   -0.445798
  H     -1.774997   -1.341080   -1.036561
  N      0.299590    1.043278    1.895429
  H     -0.408759    1.757781    2.014683
  H      1.057316    1.413786    1.329512

 Multiplicity           Mult            ....    1
 Number of Electrons    NEL             ....   68
 Basis Dimension        Dim             ....  148

ORBITAL ENERGIES
----------------

  NO   OCC          E(Eh)            E(eV)
   0   2.0000    -104.622092     -2846.9119
   1   2.0000    -104.573656     -2845.5938
   2   2.0000     -15.415770      -419.4844
   3   2.0000     -11.189811      -304.4902
   4   2.0000     -11.127076      -302.7831
   5   2.0000     -11.127043      -302.7822
   6   2.0000     -10.348764      -281.6042
   7   2.0000     -10.299509      -280.2639
   8   2.0000      -7.816291      -212.6921
   9   2.0000      -7.814880      -212.6537
  10   2.0000      -7.814876      -212.6536
  11   2.0000      -7.766576      -211.3393
  12   2.0000      -7.766086      -211.3259
  13   2.0000      -7.766037      -211.3246
  14   2.0000      -1.074293       -29.2330
  15   2.0000      -0.959446       -26.1079
  16   2.0000      -0.878258       -23.8986
  17   2.0000      -0.815580       -22.1931
  18   2.0000      -0.810664       -22.0593
  19   2.0000      -0.669533       -18.2189
  20   2.0000      -0.548946       -14.9376
  21   2.0000      -0.533127       -14.5071
  22   2.0000      -0.502062       -13.6618
  23   2.0000      -0.477262       -12.9870
  24   2.0000      -0.438452       -11.9309
  25   2.0000      -0.412413       -11.2223
  26   2.0000      -0.406603       -11.0642
  27   2.0000      -0.287114        -7.8128
  28   2.0000      -0.269870        -7.3435
  29   2.0000      -0.269591        -7.3359
  30   2.0000      -0.259031        -7.0486
  31   2.0000      -0.223728        -6.0880
  32   2.0000      -0.222382        -6.0513
  33   2.0000      -0.185560        -5.0493
  34   0.0000       0.224662         6.1134
  35   0.0000       0.277858         7.5609
  36   0.0000       0.291571         7.9340
  37   0.0000       0.312282         8.4976
  38   0.0000       0.342966         9.3326

MULLIKEN ATOMIC CHARGES
-----------------------
   0 C :   -0.117851
   1 C :   -0.223407
   2 Cl:   -0.754790
   3 Cl:   -0.615463
   4 H :    0.290979
   5 H :    0.244714
   6 H :    0.226341
   7 C :   -0.660816
   8 H :    0.257738
   9 H :    0.222443
  10 H :    0.231878
  11 N :   -0.792102
  12 H :    0.329884
  13 H :    0.360452
Sum of atomic charges:   -1.0000000

LOEWDIN ATOMIC CHARGES
----------------------
   0 C :   -0.028972
   1 C :   -0.233878
   2 Cl:   -0.705431
   3 Cl:   -0.533849
   4 H :    0.175865
   5 H :    0.123044
   6 H :    0.111099
   7 C :   -0.319520
   8 H :    0.131410
   9 H :    0.118891
  10 H :    0.126216
  11 N :   -0.367519
  12 H :    0.197285
  13 H :    0.205357

  Mayer bond orders larger than 0.1
B(  0-C ,  1-C ) :   1.3473 B(  0-C ,  2-Cl) :   0.2842 B(  0-C ,  5-H ) :   0.8885
B(  0-C ,  7-C ) :   0.9227 B(  1-C ,  4-H ) :   0.3428 B(  1-C ,  6-H ) :   0.8957
B(  1-C , 11-N ) :   0.9047 B(  3-Cl,  4-H ) :   0.4246 B(  7-C ,  8-H ) :   0.8878
B(  7-C ,  9-H ) :   0.9049 B(  7-C , 10-H ) :   0.8745 B( 11-N , 12-H ) :   0.8136
B( 11-N , 13-H ) :   0.7984

MP2 TOTAL ENERGY:    -1092.818182879 Eh
FINAL SINGLE POINT ENERGY     -1092.818182878824

DIPOLE MOMENT
-------------
                                X             Y             Z
Electronic contribution:     -0.49827       2.73722       0.63777
Nuclear contribution   :     -0.50532      -3.05766      -0.63984
                        -----------------------------------------
Total Dipole Moment    :     -1.00359      -0.32044      -0.00207
                        -----------------------------------------
Magnitude (a.u.)       :      1.05351
Magnitude (Debye)      :      2.67780

                             ****ORCA TERMINATED NORMALLY****
TOTAL RUN TIME: 0 days 0 hours 5 minutes 56 seconds 269 msec
