                         Program Version 4.0.1.2 - RELEASE -
|  1> ! MP2 6-311G(d) Opt NoFrozenCore ExtremeSCF
|  2>
|  3> %geom
|  4>  MaxIter 1
|  5>  inhess unit
|  6>  MaxStep 0.01
|  7>  Convergence tight
|  8>  Trust 0.1
|  9> end
| 10>
| 11> %mp2 MaxCore 5000
| 12> end
| 13>
| 14> *xyzfile -1 1 inp.xyz
| 15>
| 16>                          ****END OF INPUT****
 Total Charge           Charge          ....   -1
 Multiplicity           Mult            ....    1
 Number of Electrons    NEL             ....   68
MP2 TOTAL ENERGY:    -1092.818037937 Eh
FINAL SINGLE POINT ENERGY     -1092.818037936763
                    ***********************HURRAY********************

CARTESIAN COORDINATES (ANGSTROEM)
---------------------------------
  C     -0.267579   -0.124326   -0.180470
  C     -0.233766   -0.093854    1.192007
  Cl     2.167604    0.138191   -0.997085
  Cl    -3.127032    0.437141    1.592172
  H     -1.635664    0.081311    1.234078
  H     -0.346845    0.832139   -0.686186
  H     -0.143275   -1.047632    1.715009
  C     -0.681023   -1.332781   -0.948517
  H     -0.242107   -1.308629   -1.944252
  H     -0.361605   -2.246719   -0.445572
  H     -1.775175   -1.344425   -1.040054
  N      0.299276    1.043007    1.895315
  H     -0.408447    1.758278    2.014190
  H      1.056567    1.413450    1.328455

 Multiplicity           Mult            ....    1
 Number of Electrons    NEL             ....   68
 Basis Dimension        Dim             ....  148

ORBITAL ENERGIES
----------------

  NO   OCC          E(Eh)            E(eV)
   0   2.0000    -104.629902     -2847.1244
   1   2.0000    -104.569147     -2845.4711
   2   2.0000     -15.414967      -419.4626
   3   2.0000     -11.183316      -304.3135
   4   2.0000     -11.125223      -302.7327
   5   2.0000     -11.124587      -302.7154
   6   2.0000     -10.356565      -281.8165
   7   2.0000     -10.295079      -280.1433
   8   2.0000      -7.824161      -212.9062
   9   2.0000      -7.822627      -212.8645
  10   2.0000      -7.822622      -212.8644
  11   2.0000      -7.762130      -211.2183
  12   2.0000      -7.761671      -211.2058
  13   2.0000      -7.761623      -211.2045
  14   2.0000      -1.072653       -29.1884
  15   2.0000      -0.956432       -26.0258
  16   2.0000      -0.886559       -24.1245
  17   2.0000      -0.812706       -22.1149
  18   2.0000      -0.806968       -21.9587
  19   2.0000      -0.666313       -18.1313
  20   2.0000      -0.547178       -14.8895
  21   2.0000      -0.531123       -14.4526
  22   2.0000      -0.499588       -13.5945
  23   2.0000      -0.475143       -12.9293
  24   2.0000      -0.436700       -11.8832
  25   2.0000      -0.412198       -11.2165
  26   2.0000      -0.406129       -11.0513
  27   2.0000      -0.286892        -7.8067
  28   2.0000      -0.276540        -7.5250
  29   2.0000      -0.276092        -7.5129
  30   2.0000      -0.258178        -7.0254
  31   2.0000      -0.219854        -5.9825
  32   2.0000      -0.218490        -5.9454
  33   2.0000      -0.182562        -4.9678
  34   0.0000       0.228944         6.2299
  35   0.0000       0.278938         7.5903
  36   0.0000       0.292520         7.9599
  37   0.0000       0.312863         8.5134
  38   0.0000       0.343780         9.3547

MULLIKEN ATOMIC CHARGES
-----------------------
   0 C :   -0.118675
   1 C :   -0.222171
   2 Cl:   -0.767387
   3 Cl:   -0.593649
   4 H :    0.290253
   5 H :    0.242464
   6 H :    0.225148
   7 C :   -0.660844
   8 H :    0.257490
   9 H :    0.221436
  10 H :    0.228107
  11 N :   -0.792076
  12 H :    0.328392
  13 H :    0.361512
Sum of atomic charges:   -1.0000000

LOEWDIN ATOMIC CHARGES
----------------------
   0 C :   -0.037831
   1 C :   -0.231695
   2 Cl:   -0.717388
   3 Cl:   -0.506667
   4 H :    0.173508
   5 H :    0.121817
   6 H :    0.110054
   7 C :   -0.319427
   8 H :    0.131050
   9 H :    0.118272
  10 H :    0.123846
  11 N :   -0.367865
  12 H :    0.196347
  13 H :    0.205978

  Mayer bond orders larger than 0.1
B(  0-C ,  1-C ) :   1.3707 B(  0-C ,  2-Cl) :   0.2649 B(  0-C ,  5-H ) :   0.8900
B(  0-C ,  7-C ) :   0.9214 B(  1-C ,  4-H ) :   0.3177 B(  1-C ,  6-H ) :   0.8964
B(  1-C , 11-N ) :   0.9050 B(  3-Cl,  4-H ) :   0.4464 B(  7-C ,  8-H ) :   0.8880
B(  7-C ,  9-H ) :   0.9054 B(  7-C , 10-H ) :   0.8767 B( 11-N , 12-H ) :   0.8142
B( 11-N , 13-H ) :   0.7976

MP2 TOTAL ENERGY:    -1092.818041421 Eh
FINAL SINGLE POINT ENERGY     -1092.818041420850

DIPOLE MOMENT
-------------
                                X             Y             Z
Electronic contribution:     -0.65905       2.76295       0.74082
Nuclear contribution   :     -0.53627      -3.05607      -0.64000
                        -----------------------------------------
Total Dipole Moment    :     -1.19532      -0.29313       0.10082
                        -----------------------------------------
Magnitude (a.u.)       :      1.23486
Magnitude (Debye)      :      3.13876

                             ****ORCA TERMINATED NORMALLY****
TOTAL RUN TIME: 0 days 0 hours 6 minutes 5 seconds 112 msec
