                         Program Version 4.0.1.2 - RELEASE -
|  1> ! MP2 6-311G(d) Opt NoFrozenCore ExtremeSCF
|  2>
|  3> %geom
|  4>  MaxIter 1
|  5>  inhess unit
|  6>  MaxStep 0.01
|  7>  Convergence tight
|  8>  Trust 0.1
|  9> end
| 10>
| 11> %mp2 MaxCore 5000
| 12> end
| 13>
| 14> *xyzfile -1 1 inp.xyz
| 15>
| 16>                          ****END OF INPUT****
 Total Charge           Charge          ....   -1
 Multiplicity           Mult            ....    1
 Number of Electrons    NEL             ....   68
MP2 TOTAL ENERGY:    -1092.818301583 Eh
FINAL SINGLE POINT ENERGY     -1092.818301583239
                    ***********************HURRAY********************

CARTESIAN COORDINATES (ANGSTROEM)
---------------------------------
  C     -0.261454   -0.124410   -0.184436
  C     -0.237761   -0.093118    1.193928
  Cl     2.164972    0.137498   -0.995878
  Cl    -3.128899    0.436605    1.591269
  H     -1.588394    0.071498    1.232805
  H     -0.351868    0.832523   -0.687828
  H     -0.135038   -1.048235    1.712447
  C     -0.680167   -1.332575   -0.948832
  H     -0.246465   -1.309701   -1.946831
  H     -0.361745   -2.246690   -0.445991
  H     -1.774842   -1.338845   -1.034281
  N      0.299930    1.043474    1.895505
  H     -0.408851    1.757448    2.015007
  H      1.057941    1.414050    1.330231

 Multiplicity           Mult            ....    1
 Number of Electrons    NEL             ....   68
 Basis Dimension        Dim             ....  148

ORBITAL ENERGIES
----------------

  NO   OCC          E(Eh)            E(eV)
   0   2.0000    -104.616989     -2846.7730
   1   2.0000    -104.576683     -2845.6762
   2   2.0000     -15.416266      -419.4979
   3   2.0000     -11.194030      -304.6050
   4   2.0000     -11.128683      -302.8269
   5   2.0000     -11.128148      -302.8123
   6   2.0000     -10.343672      -281.4656
   7   2.0000     -10.302482      -280.3448
   8   2.0000      -7.811154      -212.5523
   9   2.0000      -7.809823      -212.5161
  10   2.0000      -7.809820      -212.5160
  11   2.0000      -7.769559      -211.4205
  12   2.0000      -7.769048      -211.4065
  13   2.0000      -7.768999      -211.4052
  14   2.0000      -1.075336       -29.2614
  15   2.0000      -0.961391       -26.1608
  16   2.0000      -0.872923       -23.7535
  17   2.0000      -0.817543       -22.2465
  18   2.0000      -0.812970       -22.1220
  19   2.0000      -0.671642       -18.2763
  20   2.0000      -0.550154       -14.9704
  21   2.0000      -0.534368       -14.5409
  22   2.0000      -0.503650       -13.7050
  23   2.0000      -0.478649       -13.0247
  24   2.0000      -0.439710       -11.9651
  25   2.0000      -0.413554       -11.2534
  26   2.0000      -0.406107       -11.0507
  27   2.0000      -0.287339        -7.8189
  28   2.0000      -0.265505        -7.2248
  29   2.0000      -0.265314        -7.2196
  30   2.0000      -0.259435        -7.0596
  31   2.0000      -0.226318        -6.1584
  32   2.0000      -0.224983        -6.1221
  33   2.0000      -0.187487        -5.1018
  34   0.0000       0.221900         6.0382
  35   0.0000       0.277140         7.5414
  36   0.0000       0.290914         7.9162
  37   0.0000       0.311906         8.4874
  38   0.0000       0.342464         9.3189

MULLIKEN ATOMIC CHARGES
-----------------------
   0 C :   -0.117358
   1 C :   -0.224317
   2 Cl:   -0.746026
   3 Cl:   -0.630343
   4 H :    0.291832
   5 H :    0.246233
   6 H :    0.226971
   7 C :   -0.660801
   8 H :    0.257891
   9 H :    0.223131
  10 H :    0.234430
  11 N :   -0.792184
  12 H :    0.330854
  13 H :    0.359687
Sum of atomic charges:   -1.0000000

LOEWDIN ATOMIC CHARGES
----------------------
   0 C :   -0.022905
   1 C :   -0.235419
   2 Cl:   -0.697103
   3 Cl:   -0.552036
   4 H :    0.177165
   5 H :    0.123870
   6 H :    0.111742
   7 C :   -0.319594
   8 H :    0.131645
   9 H :    0.119311
  10 H :    0.127823
  11 N :   -0.367305
  12 H :    0.197899
  13 H :    0.204906

  Mayer bond orders larger than 0.1
B(  0-C ,  1-C ) :   1.3312 B(  0-C ,  2-Cl) :   0.2977 B(  0-C ,  5-H ) :   0.8874
B(  0-C ,  7-C ) :   0.9236 B(  1-C ,  4-H ) :   0.3602 B(  1-C ,  6-H ) :   0.8953
B(  1-C , 11-N ) :   0.9045 B(  3-Cl,  4-H ) :   0.4102 B(  7-C ,  8-H ) :   0.8876
B(  7-C ,  9-H ) :   0.9046 B(  7-C , 10-H ) :   0.8730 B( 11-N , 12-H ) :   0.8132
B( 11-N , 13-H ) :   0.7989

MP2 TOTAL ENERGY:    -1092.818341090 Eh
FINAL SINGLE POINT ENERGY     -1092.818341089703

DIPOLE MOMENT
-------------
                                X             Y             Z
Electronic contribution:     -0.38983       2.71980       0.56725
Nuclear contribution   :     -0.48336      -3.05858      -0.63994
                        -----------------------------------------
Total Dipole Moment    :     -0.87319      -0.33878      -0.07270
                        -----------------------------------------
Magnitude (a.u.)       :      0.93943
Magnitude (Debye)      :      2.38784

                             ****ORCA TERMINATED NORMALLY****
TOTAL RUN TIME: 0 days 0 hours 6 minutes 24 seconds 41 msec
