                         Program Version 4.0.1.2 - RELEASE -
|  1> ! MP2 6-311G(d) Opt NoFrozenCore ExtremeSCF
|  2>
|  3> %geom
|  4>  MaxIter 1
|  5>  inhess unit
|  6>  MaxStep 0.01
|  7>  Convergence tight
|  8>  Trust 0.1
|  9> end
| 10>
| 11> %mp2 MaxCore 5000
| 12> end
| 13>
| 14> *xyzfile -1 1 inp.xyz
| 15>
| 16>                          ****END OF INPUT****
 Total Charge           Charge          ....   -1
 Multiplicity           Mult            ....    1
 Number of Electrons    NEL             ....   68
MP2 TOTAL ENERGY:    -1092.818110278 Eh
FINAL SINGLE POINT ENERGY     -1092.818110278430
                    ***********************HURRAY********************

CARTESIAN COORDINATES (ANGSTROEM)
---------------------------------
  C     -0.265153   -0.124352   -0.182013
  C     -0.235392   -0.093560    1.192744
  Cl     2.166541    0.137924   -0.996600
  Cl    -3.127490    0.436935    1.591758
  H     -1.616617    0.077358    1.233479
  H     -0.348863    0.832314   -0.686794
  H     -0.140049   -1.047883    1.713961
  C     -0.680697   -1.332689   -0.948614
  H     -0.243866   -1.309049   -1.945256
  H     -0.361673   -2.246700   -0.445715
  H     -1.775063   -1.342196   -1.037716
  N      0.299460    1.043184    1.895391
  H     -0.408677    1.757947    2.014520
  H      1.057042    1.413666    1.329156

 Multiplicity           Mult            ....    1
 Number of Electrons    NEL             ....   68
 Basis Dimension        Dim             ....  148

ORBITAL ENERGIES
----------------

  NO   OCC          E(Eh)            E(eV)
   0   2.0000    -104.624680     -2846.9823
   1   2.0000    -104.572146     -2845.5528
   2   2.0000     -15.415509      -419.4773
   3   2.0000     -11.187664      -304.4318
   4   2.0000     -11.126461      -302.7664
   5   2.0000     -11.126250      -302.7607
   6   2.0000     -10.351348      -281.6745
   7   2.0000     -10.298026      -280.2235
   8   2.0000      -7.818897      -212.7630
   9   2.0000      -7.817445      -212.7235
  10   2.0000      -7.817442      -212.7234
  11   2.0000      -7.765088      -211.2988
  12   2.0000      -7.764608      -211.2857
  13   2.0000      -7.764560      -211.2844
  14   2.0000      -1.073755       -29.2184
  15   2.0000      -0.958452       -26.0808
  16   2.0000      -0.880991       -23.9730
  17   2.0000      -0.814617       -22.1669
  18   2.0000      -0.809454       -22.0264
  19   2.0000      -0.668465       -18.1899
  20   2.0000      -0.548350       -14.9214
  21   2.0000      -0.532477       -14.4894
  22   2.0000      -0.501248       -13.6396
  23   2.0000      -0.476559       -12.9678
  24   2.0000      -0.437844       -11.9144
  25   2.0000      -0.412087       -11.2135
  26   2.0000      -0.406666       -11.0659
  27   2.0000      -0.287015        -7.8101
  28   2.0000      -0.272080        -7.4037
  29   2.0000      -0.271766        -7.3951
  30   2.0000      -0.258774        -7.0416
  31   2.0000      -0.222433        -6.0527
  32   2.0000      -0.221081        -6.0159
  33   2.0000      -0.184572        -5.0225
  34   0.0000       0.226072         6.1517
  35   0.0000       0.278218         7.5707
  36   0.0000       0.291893         7.9428
  37   0.0000       0.312474         8.5028
  38   0.0000       0.343230         9.3398

MULLIKEN ATOMIC CHARGES
-----------------------
   0 C :   -0.118115
   1 C :   -0.222978
   2 Cl:   -0.759066
   3 Cl:   -0.608113
   4 H :    0.290661
   5 H :    0.243959
   6 H :    0.225975
   7 C :   -0.660824
   8 H :    0.257657
   9 H :    0.222103
  10 H :    0.230612
  11 N :   -0.792080
  12 H :    0.329392
  13 H :    0.360818
Sum of atomic charges:   -1.0000000

LOEWDIN ATOMIC CHARGES
----------------------
   0 C :   -0.031961
   1 C :   -0.233131
   2 Cl:   -0.709491
   3 Cl:   -0.524763
   4 H :    0.175131
   5 H :    0.122633
   6 H :    0.110761
   7 C :   -0.319486
   8 H :    0.131291
   9 H :    0.118683
  10 H :    0.125420
  11 N :   -0.367632
  12 H :    0.196975
  13 H :    0.205572

  Mayer bond orders larger than 0.1
B(  0-C ,  1-C ) :   1.3552 B(  0-C ,  2-Cl) :   0.2776 B(  0-C ,  5-H ) :   0.8890
B(  0-C ,  7-C ) :   0.9223 B(  1-C ,  4-H ) :   0.3343 B(  1-C ,  6-H ) :   0.8959
B(  1-C , 11-N ) :   0.9048 B(  3-Cl,  4-H ) :   0.4319 B(  7-C ,  8-H ) :   0.8879
B(  7-C ,  9-H ) :   0.9051 B(  7-C , 10-H ) :   0.8752 B( 11-N , 12-H ) :   0.8138
B( 11-N , 13-H ) :   0.7981

MP2 TOTAL ENERGY:    -1092.818122872 Eh
FINAL SINGLE POINT ENERGY     -1092.818122872023

DIPOLE MOMENT
-------------
                                X             Y             Z
Electronic contribution:     -0.55218       2.74586       0.67253
Nuclear contribution   :     -0.51590      -3.05715      -0.63985
                        -----------------------------------------
Total Dipole Moment    :     -1.06808      -0.31130       0.03268
                        -----------------------------------------
Magnitude (a.u.)       :      1.11300
Magnitude (Debye)      :      2.82903

                             ****ORCA TERMINATED NORMALLY****
TOTAL RUN TIME: 0 days 0 hours 5 minutes 50 seconds 384 msec
