                         Program Version 4.0.1.2 - RELEASE -
|  1> ! MP2 6-311G(d) Opt NoFrozenCore ExtremeSCF
|  2>
|  3> %geom
|  4>  MaxIter 1
|  5>  inhess unit
|  6>  MaxStep 0.01
|  7>  Convergence tight
|  8>  Trust 0.1
|  9> end
| 10>
| 11> %mp2 MaxCore 5000
| 12> end
| 13>
| 14> *xyzfile -1 1 inp.xyz
| 15>
| 16>                          ****END OF INPUT****
 Total Charge           Charge          ....   -1
 Multiplicity           Mult            ....    1
 Number of Electrons    NEL             ....   68
MP2 TOTAL ENERGY:    -1092.818023409 Eh
FINAL SINGLE POINT ENERGY     -1092.818023408789
                    ***********************HURRAY********************

CARTESIAN COORDINATES (ANGSTROEM)
---------------------------------
  C     -0.272349   -0.124301   -0.177552
  C     -0.230423   -0.094447    1.190646
  Cl     2.169756    0.138688   -0.998056
  Cl    -3.127232    0.437559    1.593197
  H     -1.674147    0.089289    1.235593
  H     -0.342785    0.831704   -0.685162
  H     -0.149476   -1.047092    1.717191
  C     -0.681613   -1.332998   -0.948430
  H     -0.238530   -1.307829   -1.942342
  H     -0.361426   -2.246783   -0.445372
  H     -1.775318   -1.348866   -1.044833
  N      0.299186    1.042686    1.895168
  H     -0.407753    1.758928    2.013513
  H      1.055898    1.413113    1.327109

 Multiplicity           Mult            ....    1
 Number of Electrons    NEL             ....   68
 Basis Dimension        Dim             ....  148

ORBITAL ENERGIES
----------------

  NO   OCC          E(Eh)            E(eV)
   0   2.0000    -104.640396     -2847.4099
   1   2.0000    -104.563283     -2845.3116
   2   2.0000     -15.413810      -419.4311
   3   2.0000     -11.174507      -304.0738
   4   2.0000     -11.122540      -302.6597
   5   2.0000     -11.121217      -302.6237
   6   2.0000     -10.367069      -282.1023
   7   2.0000     -10.289316      -279.9865
   8   2.0000      -7.834764      -213.1948
   9   2.0000      -7.833060      -213.1484
  10   2.0000      -7.833055      -213.1483
  11   2.0000      -7.756347      -211.0609
  12   2.0000      -7.755926      -211.0495
  13   2.0000      -7.755878      -211.0482
  14   2.0000      -1.070378       -29.1265
  15   2.0000      -0.952348       -25.9147
  16   2.0000      -0.897943       -24.4343
  17   2.0000      -0.808906       -22.0114
  18   2.0000      -0.801908       -21.8210
  19   2.0000      -0.661988       -18.0136
  20   2.0000      -0.544937       -14.8285
  21   2.0000      -0.528252       -14.3745
  22   2.0000      -0.496215       -13.5027
  23   2.0000      -0.472336       -12.8529
  24   2.0000      -0.434955       -11.8357
  25   2.0000      -0.414456       -11.2779
  26   2.0000      -0.403180       -10.9711
  27   2.0000      -0.288329        -7.8458
  28   2.0000      -0.285553        -7.7703
  29   2.0000      -0.283061        -7.7025
  30   2.0000      -0.256696        -6.9851
  31   2.0000      -0.214790        -5.8447
  32   2.0000      -0.213402        -5.8070
  33   2.0000      -0.178481        -4.8567
  34   0.0000       0.234837         6.3903
  35   0.0000       0.280356         7.6289
  36   0.0000       0.293679         7.9914
  37   0.0000       0.313663         8.5352
  38   0.0000       0.344960         9.3868

MULLIKEN ATOMIC CHARGES
-----------------------
   0 C :   -0.119937
   1 C :   -0.220743
   2 Cl:   -0.783039
   3 Cl:   -0.565906
   4 H :    0.290370
   5 H :    0.239569
   6 H :    0.223149
   7 C :   -0.660892
   8 H :    0.257145
   9 H :    0.220162
  10 H :    0.223239
  11 N :   -0.792224
  12 H :    0.326357
  13 H :    0.362749
Sum of atomic charges:   -1.0000000

LOEWDIN ATOMIC CHARGES
----------------------
   0 C :   -0.049047
   1 C :   -0.229091
   2 Cl:   -0.732233
   3 Cl:   -0.471038
   4 H :    0.169722
   5 H :    0.120230
   6 H :    0.108540
   7 C :   -0.319336
   8 H :    0.130569
   9 H :    0.117481
  10 H :    0.120797
  11 N :   -0.368360
  12 H :    0.195073
  13 H :    0.206694

  Mayer bond orders larger than 0.1
B(  0-C ,  1-C ) :   1.4005 B(  0-C ,  2-Cl) :   0.2413 B(  0-C ,  5-H ) :   0.8920
B(  0-C ,  7-C ) :   0.9198 B(  1-C ,  4-H ) :   0.2863 B(  1-C ,  6-H ) :   0.8975
B(  1-C , 11-N ) :   0.9051 B(  3-Cl,  4-H ) :   0.4752 B(  7-C ,  8-H ) :   0.8883
B(  7-C ,  9-H ) :   0.9061 B(  7-C , 10-H ) :   0.8794 B( 11-N , 12-H ) :   0.8152
B( 11-N , 13-H ) :   0.7967

MP2 TOTAL ENERGY:    -1092.818025572 Eh
FINAL SINGLE POINT ENERGY     -1092.818025571942

DIPOLE MOMENT
-------------
                                X             Y             Z
Electronic contribution:     -0.86755       2.79618       0.87169
Nuclear contribution   :     -0.57383      -3.05377      -0.64078
                        -----------------------------------------
Total Dipole Moment    :     -1.44138      -0.25759       0.23092
                        -----------------------------------------
Magnitude (a.u.)       :      1.48231
Magnitude (Debye)      :      3.76774

                             ****ORCA TERMINATED NORMALLY****
TOTAL RUN TIME: 0 days 0 hours 6 minutes 26 seconds 532 msec
