                         Program Version 4.0.1.2 - RELEASE -
|  1> ! MP2 6-311G(d) NoFrozenCore ExtremeSCF NumFreq
|  2>
|  3> %pal nprocs 1
|  4> end
|  5>
|  6> %mp2 MaxCore 10000
|  7> end
|  8>
|  9> %freq
| 10> restart true
| 11> end
| 12>
| 13> %geom
| 14> Calc_Hess true
| 15> NumHess true
| 16> end
| 17>
| 18> *xyzfile -1 1 inp.xyz
| 19>
| 20>                          ****END OF INPUT****

CARTESIAN COORDINATES (ANGSTROEM)
---------------------------------
  C     -0.270038   -0.124375   -0.178851
  C     -0.232011   -0.094210    1.191373
  Cl     2.168583    0.138568   -0.997662
  Cl    -3.126878    0.437540    1.592113
  H     -1.654833    0.085307    1.234499
  H     -0.344913    0.831861   -0.685531
  H     -0.146312   -1.047385    1.716218
  C     -0.681394   -1.332911   -0.948353
  H     -0.240581   -1.307895   -1.943248
  H     -0.361320   -2.246784   -0.445548
  H     -1.775333   -1.346917   -1.042193
  N      0.299246    1.042797    1.895302
  H     -0.408076    1.758559    2.013949
  H      1.056219    1.413245    1.327811

 Total Charge           Charge          ....   -1
 Multiplicity           Mult            ....    1
 Number of Electrons    NEL             ....   68
 Basis Dimension        Dim             ....  148

ORBITAL ENERGIES
----------------

  NO   OCC          E(Eh)            E(eV)
   0   2.0000    -104.635174     -2847.2678
   1   2.0000    -104.566162     -2845.3899
   2   2.0000     -15.414404      -419.4473
   3   2.0000     -11.178885      -304.1929
   4   2.0000     -11.123922      -302.6973
   5   2.0000     -11.122890      -302.6692
   6   2.0000     -10.361839      -281.9600
   7   2.0000     -10.292146      -280.0635
   8   2.0000      -7.829483      -213.0511
   9   2.0000      -7.827865      -213.0070
  10   2.0000      -7.827860      -213.0069
  11   2.0000      -7.759188      -211.1382
  12   2.0000      -7.758748      -211.1263
  13   2.0000      -7.758700      -211.1250
  14   2.0000      -1.071533       -29.1579
  15   2.0000      -0.954393       -25.9704
  16   2.0000      -0.892249       -24.2793
  17   2.0000      -0.810807       -22.0632
  18   2.0000      -0.804424       -21.8895
  19   2.0000      -0.664137       -18.0721
  20   2.0000      -0.546039       -14.8585
  21   2.0000      -0.529719       -14.4144
  22   2.0000      -0.497921       -13.5491
  23   2.0000      -0.473716       -12.8905
  24   2.0000      -0.435706       -11.8562
  25   2.0000      -0.413154       -11.2425
  26   2.0000      -0.404833       -11.0161
  27   2.0000      -0.287071        -7.8116
  28   2.0000      -0.281058        -7.6480
  29   2.0000      -0.280159        -7.6235
  30   2.0000      -0.257478        -7.0063
  31   2.0000      -0.217282        -5.9125
  32   2.0000      -0.215905        -5.8751
  33   2.0000      -0.180521        -4.9122
  34   0.0000       0.231908         6.3105
  35   0.0000       0.279661         7.6100
  36   0.0000       0.293126         7.9764
  37   0.0000       0.313256         8.5241
  38   0.0000       0.344358         9.3705

MULLIKEN ATOMIC CHARGES
-----------------------
   0 C :   -0.119326
   1 C :   -0.221348
   2 Cl:   -0.775462
   3 Cl:   -0.579521
   4 H :    0.290154
   5 H :    0.241011
   6 H :    0.224190
   7 C :   -0.660843
   8 H :    0.257310
   9 H :    0.220786
  10 H :    0.225642
  11 N :   -0.792133
  12 H :    0.327380
  13 H :    0.362162
Sum of atomic charges:   -1.0000000

LOEWDIN ATOMIC CHARGES
----------------------
   0 C :   -0.043572
   1 C :   -0.230306
   2 Cl:   -0.725051
   3 Cl:   -0.488687
   4 H :    0.171706
   5 H :    0.121024
   6 H :    0.109312
   7 C :   -0.319368
   8 H :    0.130810
   9 H :    0.117872
  10 H :    0.122297
  11 N :   -0.368107
  12 H :    0.195713
  13 H :    0.206357

  Mayer bond orders larger than 0.1
B(  0-C ,  1-C ) :   1.3859 B(  0-C ,  2-Cl) :   0.2527 B(  0-C ,  5-H ) :   0.8910
B(  0-C ,  7-C ) :   0.9206 B(  1-C ,  4-H ) :   0.3016 B(  1-C ,  6-H ) :   0.8969
B(  1-C , 11-N ) :   0.9051 B(  3-Cl,  4-H ) :   0.4609 B(  7-C ,  8-H ) :   0.8882
B(  7-C ,  9-H ) :   0.9058 B(  7-C , 10-H ) :   0.8780 B( 11-N , 12-H ) :   0.8147
B( 11-N , 13-H ) :   0.7971

MP2 TOTAL ENERGY:    -1092.818009893 Eh
FINAL SINGLE POINT ENERGY     -1092.818009892853

DIPOLE MOMENT
-------------
                                X             Y             Z
Electronic contribution:     -0.76490       2.78039       0.80630
Nuclear contribution   :     -0.55554      -3.05580      -0.63855
                        -----------------------------------------
Total Dipole Moment    :     -1.32044      -0.27540       0.16775
                        -----------------------------------------
Magnitude (a.u.)       :      1.35924
Magnitude (Debye)      :      3.45492

VIBRATIONAL FREQUENCIES
-----------------------

   0:         0.00 cm**-1
   1:         0.00 cm**-1
   2:         0.00 cm**-1
   3:         0.00 cm**-1
   4:         0.00 cm**-1
   5:         0.00 cm**-1
   6:      -756.84 cm**-1 ***imaginary mode***
   7:        54.13 cm**-1
   8:        65.66 cm**-1
   9:       100.58 cm**-1
  10:       145.69 cm**-1
  11:       176.44 cm**-1
  12:       191.93 cm**-1
  13:       215.03 cm**-1
  14:       306.23 cm**-1
  15:       405.72 cm**-1
  16:       427.91 cm**-1
  17:       533.95 cm**-1
  18:       810.62 cm**-1
  19:       919.70 cm**-1
  20:       962.24 cm**-1
  21:       975.73 cm**-1
  22:      1066.56 cm**-1
  23:      1101.69 cm**-1
  24:      1157.71 cm**-1
  25:      1179.22 cm**-1
  26:      1211.41 cm**-1
  27:      1297.01 cm**-1
  28:      1330.49 cm**-1
  29:      1363.39 cm**-1
  30:      1432.16 cm**-1
  31:      1500.93 cm**-1
  32:      1525.81 cm**-1
  33:      1653.97 cm**-1
  34:      1721.93 cm**-1
  35:      3056.87 cm**-1
  36:      3147.31 cm**-1
  37:      3156.36 cm**-1
  38:      3206.52 cm**-1
  39:      3242.71 cm**-1
  40:      3514.47 cm**-1
  41:      3617.79 cm**-1

IR SPECTRUM
-----------

 Mode    freq (cm**-1)   T**2         TX         TY         TZ
-------------------------------------------------------------------
   7:        54.13   12.576310  ( -0.718643   3.143942  -1.474955)
   8:        65.66   16.528910  ( -0.311165   1.916025   3.572245)
   9:       100.58   19.969477  ( -2.822441   1.456123   3.143725)
  10:       145.69    8.440273  ( -2.881446  -0.226154   0.293928)
  11:       176.44   30.804472  ( -3.663523   1.688352   3.812157)
  12:       191.93   64.375612  ( -7.474391   1.031926   2.728410)
  13:       215.03   25.637543  (  3.435581  -2.593212  -2.666379)
  14:       306.23   22.462689  (  2.929890  -3.032990  -2.163192)
  15:       405.72   55.648749  (  6.792912  -1.379323  -2.757274)
  16:       427.91  386.001837  (-16.767956   5.306042   8.756907)
  17:       533.95   28.473318  ( -4.845838   0.161066   2.228279)
  18:       810.62  523.355460  (-21.146920   3.547223   7.973734)
  19:       919.70   80.628010  (  1.319724  -3.712899  -8.068502)
  20:       962.24  118.965261  (-10.514730  -0.139065  -2.895923)
  21:       975.73   99.565558  (  0.470920  -2.893390  -9.537929)
  22:      1066.56   15.015760  (  3.457161   1.661715   0.550001)
  23:      1101.69   18.525531  ( -2.622029   3.001068   1.626065)
  24:      1157.71    8.151365  ( -2.347468  -1.343498   0.914207)
  25:      1179.22    6.752998  (  0.658920  -2.038995   1.470143)
  26:      1211.41    4.468824  ( -0.782711   1.909275  -0.459191)
  27:      1297.01   15.378050  (  3.848918  -0.176260  -0.729940)
  28:      1330.49    2.781068  ( -0.224092   1.346205   0.958427)
  29:      1363.39    1.792516  (  0.732870   0.112576   1.114785)
  30:      1432.16   20.384715  (  0.526615  -3.508776  -2.792111)
  31:      1500.93    7.544429  ( -0.469747   0.867425  -2.563463)
  32:      1525.81   10.886785  ( -2.798837   1.694665  -0.425916)
  33:      1653.97    4.986464  (  2.106052   0.695815  -0.258558)
  34:      1721.93   47.887087  ( -2.573985  -5.885572   2.573272)
  35:      3056.87   13.961638  (  2.495203   2.343586   1.497732)
  36:      3147.31   22.127520  (  1.184507   4.534705  -0.401145)
  37:      3156.36   19.163508  (  2.131125  -3.808573   0.341448)
  38:      3206.52    6.012354  ( -0.367962  -1.299769   2.046352)
  39:      3242.71    8.469715  ( -1.389485  -2.285552   1.146864)
  40:      3514.47    8.086964  ( -2.152233  -0.220300   1.845623)
  41:      3617.79   12.818372  ( -3.384326  -0.410154   1.093837)

--------------------------
THERMOCHEMISTRY AT 298.15K
--------------------------

Temperature         ... 298.15 K
Pressure            ... 1.00 atm
Total Mass          ... 129.01 AMU

Throughout the following assumptions are being made:
  (1) The electronic state is orbitally nondegenerate
  (2) There are no thermally accessible electronically excited states
  (3) Hindered rotations indicated by low frequency modes are not
      treated as such but are treated as vibrations and this may
      cause some error
  (4) All equations used are the standard statistical mechanics
      equations for an ideal gas
  (5) All vibrations are strictly harmonic

freq.      54.13  E(vib)   ...       0.52
freq.      65.66  E(vib)   ...       0.50
freq.     100.58  E(vib)   ...       0.46
freq.     145.69  E(vib)   ...       0.41
freq.     176.44  E(vib)   ...       0.38
freq.     191.93  E(vib)   ...       0.36
freq.     215.03  E(vib)   ...       0.34
freq.     306.23  E(vib)   ...       0.26
freq.     405.72  E(vib)   ...       0.19
freq.     427.91  E(vib)   ...       0.18
freq.     533.95  E(vib)   ...       0.13
freq.     810.62  E(vib)   ...       0.05
freq.     919.70  E(vib)   ...       0.03
freq.     962.24  E(vib)   ...       0.03
freq.     975.73  E(vib)   ...       0.03
freq.    1066.56  E(vib)   ...       0.02
freq.    1101.69  E(vib)   ...       0.02
freq.    1157.71  E(vib)   ...       0.01
freq.    1179.22  E(vib)   ...       0.01
freq.    1211.41  E(vib)   ...       0.01
freq.    1297.01  E(vib)   ...       0.01
freq.    1330.49  E(vib)   ...       0.01
freq.    1363.39  E(vib)   ...       0.01
freq.    1432.16  E(vib)   ...       0.00
freq.    1500.93  E(vib)   ...       0.00
freq.    1525.81  E(vib)   ...       0.00
freq.    1653.97  E(vib)   ...       0.00
freq.    1721.93  E(vib)   ...       0.00
freq.    3056.87  E(vib)   ...       0.00
freq.    3147.31  E(vib)   ...       0.00
freq.    3156.36  E(vib)   ...       0.00
freq.    3206.52  E(vib)   ...       0.00
freq.    3242.71  E(vib)   ...       0.00
freq.    3514.47  E(vib)   ...       0.00
freq.    3617.79  E(vib)   ...       0.00

------------
INNER ENERGY
------------

The inner energy is: U= E(el) + E(ZPE) + E(vib) + E(rot) + E(trans)
    E(el)   - is the total energy from the electronic structure calculation
              = E(kin-el) + E(nuc-el) + E(el-el) + E(nuc-nuc)
    E(ZPE)  - the the zero temperature vibrational energy from the frequency calculation
    E(vib)  - the the finite temperature correction to E(ZPE) due to population
              of excited vibrational states
    E(rot)  - is the rotational thermal energy
    E(trans)- is the translational thermal energy

Summary of contributions to the inner energy U:
Electronic energy                ...  -1092.81800990 Eh
Zero point energy                ...      0.10656328 Eh      66.87 kcal/mol
Thermal vibrational correction   ...      0.00628863 Eh       3.95 kcal/mol
Thermal rotational correction    ...      0.00141627 Eh       0.89 kcal/mol
Thermal translational correction ...      0.00141627 Eh       0.89 kcal/mol
-----------------------------------------------------------------------
Total thermal energy                  -1092.70232545 Eh

Summary of corrections to the electronic energy:
(perhaps to be used in another calculation)
Total thermal correction                  0.00912117 Eh       5.72 kcal/mol
Non-thermal (ZPE) correction              0.10656328 Eh      66.87 kcal/mol
-----------------------------------------------------------------------
Total correction                          0.11568445 Eh      72.59 kcal/mol

--------
ENTHALPY
--------

The enthalpy is H = U + kB*T
                kB is Boltzmann's constant
Total free energy                 ...  -1092.70232545 Eh
Thermal Enthalpy correction       ...      0.00094421 Eh       0.59 kcal/mol
-----------------------------------------------------------------------
Total Enthalpy                    ...  -1092.70138124 Eh

Vibrational entropy computed according to the QRRHO of S. Grimme
Chem.Eur.J. 2012 18 9955

-------
ENTROPY
-------

The entropy contributions are T*S = T*(S(el)+S(vib)+S(rot)+S(trans)
     S(el)   - electronic entropy
     S(vib)  - vibrational entropy
     S(rot)  - rotational entropy
     S(trans)- translational entropy
The entropies will be listed as mutliplied by the temperature to get
units of energy

Electronic entropy                ...      0.00000000 Eh      0.00 kcal/mol
Vibrational entropy               ...      0.01145144 Eh      7.19 kcal/mol
Rotational entropy                ...      0.01299070 Eh      8.15 kcal/mol
Translational entropy             ...      0.01923199 Eh     12.07 kcal/mol
-----------------------------------------------------------------------
Final entropy term                ...      0.04367413 Eh     27.41 kcal/mol

CAUTION: The rotational entropy is not quite correctly treated here
         because it includes a symmetry number that is not yet correctly
         implemented in ORCA!
For a nonlinear molecule the correct rotational entropy is:
    S(rot) = R*(ln(qrot/sn)+1.5)
    R    = 8.31441 J/mol/K = 1.987191683e-3 kcal/mol/K
    qrot = 632418.8655054
    sn is the rotational symmetry number. We have assumed 3 here
       if it is different for your molecule then you should correct
       the printed rotational entropy by manually evaluating the equation
       as given above

For convenience we print out the resulting values for sn=1 - 12:
 sn= 1  qrot/sn=  632418.8655 T*S(rot)=     8.80 kcal/mol T*S(tot)=    28.06 kcal/mol
 sn= 2  qrot/sn=  316209.4328 T*S(rot)=     8.39 kcal/mol T*S(tot)=    27.65 kcal/mol
 sn= 3  qrot/sn=  210806.2885 T*S(rot)=     8.15 kcal/mol T*S(tot)=    27.41 kcal/mol
 sn= 4  qrot/sn=  158104.7164 T*S(rot)=     7.98 kcal/mol T*S(tot)=    27.24 kcal/mol
 sn= 5  qrot/sn=  126483.7731 T*S(rot)=     7.85 kcal/mol T*S(tot)=    27.10 kcal/mol
 sn= 6  qrot/sn=  105403.1443 T*S(rot)=     7.74 kcal/mol T*S(tot)=    27.00 kcal/mol
 sn= 7  qrot/sn=   90345.5522 T*S(rot)=     7.65 kcal/mol T*S(tot)=    26.90 kcal/mol
 sn= 8  qrot/sn=   79052.3582 T*S(rot)=     7.57 kcal/mol T*S(tot)=    26.82 kcal/mol
 sn= 9  qrot/sn=   70268.7628 T*S(rot)=     7.50 kcal/mol T*S(tot)=    26.75 kcal/mol
 sn=10  qrot/sn=   63241.8866 T*S(rot)=     7.44 kcal/mol T*S(tot)=    26.69 kcal/mol
 sn=11  qrot/sn=   57492.6241 T*S(rot)=     7.38 kcal/mol T*S(tot)=    26.64 kcal/mol
 sn=12  qrot/sn=   52701.5721 T*S(rot)=     7.33 kcal/mol T*S(tot)=    26.58 kcal/mol

-------------------
GIBBS FREE ENTHALPY
-------------------

The Gibbs free enthalpy is G = H - T*S

Total enthalpy                    ...  -1092.70138124 Eh
Total entropy correction          ...     -0.04367413 Eh    -27.41 kcal/mol
-----------------------------------------------------------------------
Final Gibbs free enthalpy         ...  -1092.74505537 Eh

For completeness - the Gibbs free enthalpy minus the electronic energy
G-E(el)                           ...      0.07295452 Eh     45.78 kcal/mol

                             ****ORCA TERMINATED NORMALLY****
TOTAL RUN TIME: 0 days 0 hours 48 minutes 51 seconds 680 msec
