                         Program Version 4.0.1.2 - RELEASE -
|  1> ! MP2 6-311G(d) Opt NoFrozenCore ExtremeSCF
|  2>
|  3> %geom
|  4>  MaxIter 1
|  5>  inhess unit
|  6>  MaxStep 0.01
|  7>  Convergence tight
|  8>  Trust 0.1
|  9> end
| 10>
| 11> %mp2 MaxCore 5000
| 12> end
| 13>
| 14> *xyzfile -1 1 inp.xyz
| 15>
| 16>                          ****END OF INPUT****
 Total Charge           Charge          ....   -1
 Multiplicity           Mult            ....    1
 Number of Electrons    NEL             ....   68
MP2 TOTAL ENERGY:    -1092.818073237 Eh
FINAL SINGLE POINT ENERGY     -1092.818073236713
                    ***********************HURRAY********************

CARTESIAN COORDINATES (ANGSTROEM)
---------------------------------
  C     -0.274694   -0.124304   -0.176174
  C     -0.228713   -0.094748    1.190016
  Cl     2.170843    0.138925   -0.998538
  Cl    -3.127890    0.437789    1.593822
  H     -1.693523    0.093302    1.236487
  H     -0.340748    0.831444   -0.684742
  H     -0.152464   -1.046807    1.718317
  C     -0.681878   -1.333124   -0.948437
  H     -0.236712   -1.307446   -1.941432
  H     -0.361315   -2.246827   -0.445310
  H     -1.775350   -1.351077   -1.047272
  N      0.299268    1.042541    1.895095
  H     -0.407303    1.759243    2.013158
  H      1.055694    1.412990    1.326467

 Multiplicity           Mult            ....    1
 Number of Electrons    NEL             ....   68
 Basis Dimension        Dim             ....  148

ORBITAL ENERGIES
----------------

  NO   OCC          E(Eh)            E(eV)
   0   2.0000    -104.645587     -2847.5512
   1   2.0000    -104.560450     -2845.2345
   2   2.0000     -15.413208      -419.4147
   3   2.0000     -11.170112      -303.9542
   4   2.0000     -11.121129      -302.6213
   5   2.0000     -11.119535      -302.5779
   6   2.0000     -10.372281      -282.2441
   7   2.0000     -10.286530      -279.9107
   8   2.0000      -7.840026      -213.3380
   9   2.0000      -7.838236      -213.2892
  10   2.0000      -7.838230      -213.2891
  11   2.0000      -7.753552      -210.9849
  12   2.0000      -7.753150      -210.9739
  13   2.0000      -7.753102      -210.9726
  14   2.0000      -1.069224       -29.0951
  15   2.0000      -0.950345       -25.8602
  16   2.0000      -0.903659       -24.5898
  17   2.0000      -0.807017       -21.9601
  18   2.0000      -0.799404       -21.7529
  19   2.0000      -0.659845       -17.9553
  20   2.0000      -0.543878       -14.7997
  21   2.0000      -0.526764       -14.3340
  22   2.0000      -0.494541       -13.4571
  23   2.0000      -0.470983       -12.8161
  24   2.0000      -0.434568       -11.8252
  25   2.0000      -0.415775       -11.3138
  26   2.0000      -0.401368       -10.9218
  27   2.0000      -0.291522        -7.9327
  28   2.0000      -0.290051        -7.8927
  29   2.0000      -0.284001        -7.7281
  30   2.0000      -0.255829        -6.9615
  31   2.0000      -0.212333        -5.7779
  32   2.0000      -0.210934        -5.7398
  33   2.0000      -0.176452        -4.8015
  34   0.0000       0.237828         6.4716
  35   0.0000       0.281040         7.6475
  36   0.0000       0.294197         8.0055
  37   0.0000       0.314071         8.5463
  38   0.0000       0.345577         9.4036

MULLIKEN ATOMIC CHARGES
-----------------------
   0 C :   -0.120650
   1 C :   -0.220093
   2 Cl:   -0.790343
   3 Cl:   -0.552737
   4 H :    0.290884
   5 H :    0.238186
   6 H :    0.222001
   7 C :   -0.660919
   8 H :    0.256970
   9 H :    0.219561
  10 H :    0.220892
  11 N :   -0.792373
  12 H :    0.325330
  13 H :    0.363292
Sum of atomic charges:   -1.0000000

LOEWDIN ATOMIC CHARGES
----------------------
   0 C :   -0.054361
   1 C :   -0.227928
   2 Cl:   -0.739159
   3 Cl:   -0.453639
   4 H :    0.167598
   5 H :    0.119464
   6 H :    0.107742
   7 C :   -0.319303
   8 H :    0.130332
   9 H :    0.117103
  10 H :    0.119332
  11 N :   -0.368619
  12 H :    0.194432
  13 H :    0.207004

  Mayer bond orders larger than 0.1
B(  0-C ,  1-C ) :   1.4148 B(  0-C ,  2-Cl) :   0.2303 B(  0-C ,  5-H ) :   0.8930
B(  0-C ,  7-C ) :   0.9190 B(  1-C ,  4-H ) :   0.2715 B(  1-C ,  6-H ) :   0.8981
B(  1-C , 11-N ) :   0.9051 B(  3-Cl,  4-H ) :   0.4895 B(  7-C ,  8-H ) :   0.8885
B(  7-C ,  9-H ) :   0.9064 B(  7-C , 10-H ) :   0.8806 B( 11-N , 12-H ) :   0.8157
B( 11-N , 13-H ) :   0.7963

MP2 TOTAL ENERGY:    -1092.818082398 Eh
FINAL SINGLE POINT ENERGY     -1092.818082397763

DIPOLE MOMENT
-------------
                                X             Y             Z
Electronic contribution:     -0.96854       2.81226       0.93398
Nuclear contribution   :     -0.59099      -3.05263      -0.64148
                        -----------------------------------------
Total Dipole Moment    :     -1.55953      -0.24037       0.29250
                        -----------------------------------------
Magnitude (a.u.)       :      1.60482
Magnitude (Debye)      :      4.07914

                             ****ORCA TERMINATED NORMALLY****
TOTAL RUN TIME: 0 days 0 hours 5 minutes 45 seconds 223 msec
