                         Program Version 4.0.1.2 - RELEASE -
|  1> ! MP2 6-311G(d) Opt NoFrozenCore ExtremeSCF
|  2>
|  3> %pal nprocs 1
|  4> end
|  5>
|  6> %mp2 MaxCore 5000
|  7> end
|  8>
|  9> *xyzfile 0 1 inp.xyz
| 10>
| 11>                          ****END OF INPUT****
 Total Charge           Charge          ....    0
 Multiplicity           Mult            ....    1
 Number of Electrons    NEL             ....   50
MP2 TOTAL ENERGY:     -633.101606821 Eh
FINAL SINGLE POINT ENERGY      -633.101606820624
MP2 TOTAL ENERGY:     -633.103028372 Eh
FINAL SINGLE POINT ENERGY      -633.103028372173
MP2 TOTAL ENERGY:     -633.103570661 Eh
FINAL SINGLE POINT ENERGY      -633.103570661422
MP2 TOTAL ENERGY:     -633.103696057 Eh
FINAL SINGLE POINT ENERGY      -633.103696057321
MP2 TOTAL ENERGY:     -633.103740481 Eh
FINAL SINGLE POINT ENERGY      -633.103740481139
MP2 TOTAL ENERGY:     -633.103753675 Eh
FINAL SINGLE POINT ENERGY      -633.103753674540
MP2 TOTAL ENERGY:     -633.103757520 Eh
FINAL SINGLE POINT ENERGY      -633.103757520014
                    ***********************HURRAY********************

CARTESIAN COORDINATES (ANGSTROEM)
---------------------------------
  C     -0.201411   -0.109977   -0.260146
  C     -0.176513   -0.191332    1.265196
  Cl     1.441051    0.323406   -0.855796
  H     -1.171186   -0.519063    1.588434
  H     -0.846123    0.717447   -0.569997
  H      0.530885   -0.974161    1.555519
  C     -0.644411   -1.406118   -0.909342
  H     -0.645042   -1.323978   -1.996893
  H      0.025222   -2.221443   -0.627620
  H     -1.657123   -1.656340   -0.580430
  N      0.158784    1.019276    1.992523
  H     -0.498896    1.756374    1.769683
  H      1.080193    1.338896    1.721738

 Multiplicity           Mult            ....    1
 Number of Electrons    NEL             ....   50
 Basis Dimension        Dim             ....  122

ORBITAL ENERGIES
----------------

  NO   OCC          E(Eh)            E(eV)
   0   2.0000    -104.820168     -2852.3018
   1   2.0000     -15.540617      -422.8817
   2   2.0000     -11.300841      -307.5115
   3   2.0000     -11.264739      -306.5291
   4   2.0000     -11.236787      -305.7685
   5   2.0000     -10.547360      -287.0083
   6   2.0000      -8.015463      -218.1118
   7   2.0000      -8.012816      -218.0398
   8   2.0000      -8.012745      -218.0379
   9   2.0000      -1.201564       -32.6962
  10   2.0000      -1.134446       -30.8698
  11   2.0000      -1.015832       -27.6422
  12   2.0000      -0.920898       -25.0589
  13   2.0000      -0.806584       -21.9483
  14   2.0000      -0.690822       -18.7982
  15   2.0000      -0.643570       -17.5124
  16   2.0000      -0.620228       -16.8773
  17   2.0000      -0.597425       -16.2568
  18   2.0000      -0.549499       -14.9526
  19   2.0000      -0.540720       -14.7137
  20   2.0000      -0.526277       -14.3207
  21   2.0000      -0.495455       -13.4820
  22   2.0000      -0.441410       -12.0114
  23   2.0000      -0.435288       -11.8448
  24   2.0000      -0.396223       -10.7818
  25   0.0000       0.145749         3.9660
  26   0.0000       0.166608         4.5336
  27   0.0000       0.175933         4.7874
  28   0.0000       0.188183         5.1207
  29   0.0000       0.202631         5.5139

MULLIKEN ATOMIC CHARGES
-----------------------
   0 C :   -0.328444
   1 C :   -0.267103
   2 Cl:   -0.097190
   3 H :    0.225283
   4 H :    0.242477
   5 H :    0.235484
   6 C :   -0.633471
   7 H :    0.248291
   8 H :    0.239011
   9 H :    0.227488
  10 N :   -0.750500
  11 H :    0.318372
  12 H :    0.340304
Sum of atomic charges:   -0.0000000

LOEWDIN ATOMIC CHARGES
----------------------
   0 C :   -0.252815
   1 C :   -0.213288
   2 Cl:    0.052100
   3 H :    0.114363
   4 H :    0.110196
   5 H :    0.115124
   6 C :   -0.326207
   7 H :    0.123917
   8 H :    0.122657
   9 H :    0.120962
  10 N :   -0.360824
  11 H :    0.195716
  12 H :    0.198101

  Mayer bond orders larger than 0.1
B(  0-C ,  1-C ) :   0.8725 B(  0-C ,  2-Cl) :   0.9483 B(  0-C ,  4-H ) :   0.8749
B(  0-C ,  6-C ) :   0.8937 B(  1-C ,  3-H ) :   0.8911 B(  1-C ,  5-H ) :   0.8901
B(  1-C , 10-N ) :   0.9365 B(  6-C ,  7-H ) :   0.8982 B(  6-C ,  8-H ) :   0.8943
B(  6-C ,  9-H ) :   0.8913 B( 10-N , 11-H ) :   0.8250 B( 10-N , 12-H ) :   0.8135

MP2 TOTAL ENERGY:     -633.103758272 Eh
FINAL SINGLE POINT ENERGY      -633.103758271630

DIPOLE MOMENT
-------------
                                X             Y             Z
Electronic contribution:      6.68073       3.20695      -3.96039
Nuclear contribution   :     -7.41279      -3.28613       3.73762
                        -----------------------------------------
Total Dipole Moment    :     -0.73205      -0.07918      -0.22277
                        -----------------------------------------
Magnitude (a.u.)       :      0.76928
Magnitude (Debye)      :      1.95537

                             ****ORCA TERMINATED NORMALLY****
TOTAL RUN TIME: 0 days 0 hours 14 minutes 26 seconds 814 msec
