                         Program Version 4.0.1.2 - RELEASE -
|  1> ! MP2 6-311G(d) Opt NoFrozenCore ExtremeSCF
|  2>
|  3> %geom
|  4>  MaxIter 1
|  5>  inhess unit
|  6>  MaxStep 0.01
|  7>  Convergence tight
|  8>  Trust 0.1
|  9> end
| 10>
| 11> %mp2 MaxCore 5000
| 12> end
| 13>
| 14> *xyzfile -1 1 inp.xyz
| 15>
| 16>                          ****END OF INPUT****

CARTESIAN COORDINATES (ANGSTROEM)
---------------------------------
  C     -0.278774   -0.124353   -0.173741
  C     -0.225522   -0.095298    1.189282
  Cl     2.171595    0.139062   -0.998837
  Cl    -3.126417    0.437362    1.592082
  H     -1.729509    0.100837    1.237366
  H     -0.337462    0.831008   -0.684393
  H     -0.157918   -1.046328    1.720814
  C     -0.682798   -1.333348   -0.948094
  H     -0.234461   -1.306753   -1.939749
  H     -0.361520   -2.246982   -0.445034
  H     -1.775836   -1.354463   -1.051071
  N      0.298894    1.042533    1.895476
  H     -0.407152    1.759959    2.012952
  H      1.054954    1.413167    1.325981

 Total Charge           Charge          ....   -1
 Multiplicity           Mult            ....    1
 Number of Electrons    NEL             ....   68
 Basis Dimension        Dim             ....  148

ORBITAL ENERGIES
----------------

  NO   OCC          E(Eh)            E(eV)
   0   2.0000    -104.655223     -2847.8134
   1   2.0000    -104.555247     -2845.0929
   2   2.0000     -15.411884      -419.3787
   3   2.0000     -11.161675      -303.7246
   4   2.0000     -11.118024      -302.5368
   5   2.0000     -11.116224      -302.4878
   6   2.0000     -10.382036      -282.5096
   7   2.0000     -10.281415      -279.7715
   8   2.0000      -7.849890      -213.6064
   9   2.0000      -7.847922      -213.5528
  10   2.0000      -7.847914      -213.5526
  11   2.0000      -7.748419      -210.8452
  12   2.0000      -7.748049      -210.8351
  13   2.0000      -7.748000      -210.8338
  14   2.0000      -1.066812       -29.0294
  15   2.0000      -0.946655       -25.7598
  16   2.0000      -0.914712       -24.8906
  17   2.0000      -0.803226       -21.8569
  18   2.0000      -0.794732       -21.6258
  19   2.0000      -0.655589       -17.8395
  20   2.0000      -0.541917       -14.7463
  21   2.0000      -0.523652       -14.2493
  22   2.0000      -0.491276       -13.3683
  23   2.0000      -0.468485       -12.7481
  24   2.0000      -0.435423       -11.8485
  25   2.0000      -0.417467       -11.3599
  26   2.0000      -0.397584       -10.8188
  27   2.0000      -0.299506        -8.1500
  28   2.0000      -0.298609        -8.1256
  29   2.0000      -0.283605        -7.7173
  30   2.0000      -0.253921        -6.9096
  31   2.0000      -0.207806        -5.6547
  32   2.0000      -0.206381        -5.6159
  33   2.0000      -0.172379        -4.6907
  34   0.0000       0.243901         6.6369
  35   0.0000       0.282447         7.6858
  36   0.0000       0.295167         8.0319
  37   0.0000       0.315001         8.5716
  38   0.0000       0.346894         9.4395

MULLIKEN ATOMIC CHARGES
-----------------------
   0 C :   -0.122861
   1 C :   -0.218881
   2 Cl:   -0.802818
   3 Cl:   -0.528581
   4 H :    0.293072
   5 H :    0.235489
   6 H :    0.219423
   7 C :   -0.660790
   8 H :    0.256477
   9 H :    0.218413
  10 H :    0.216548
  11 N :   -0.792906
  12 H :    0.323292
  13 H :    0.364125
Sum of atomic charges:   -1.0000000

LOEWDIN ATOMIC CHARGES
----------------------
   0 C :   -0.064368
   1 C :   -0.226324
   2 Cl:   -0.750869
   3 Cl:   -0.420135
   4 H :    0.162676
   5 H :    0.117981
   6 H :    0.106095
   7 C :   -0.319268
   8 H :    0.129807
   9 H :    0.116381
  10 H :    0.116602
  11 N :   -0.369200
  12 H :    0.193132
  13 H :    0.207492

  Mayer bond orders larger than 0.1
B(  0-C ,  1-C ) :   1.4410 B(  0-C ,  2-Cl) :   0.2117 B(  0-C ,  5-H ) :   0.8947
B(  0-C ,  7-C ) :   0.9176 B(  1-C ,  4-H ) :   0.2452 B(  1-C ,  6-H ) :   0.8994
B(  1-C , 11-N ) :   0.9049 B(  3-Cl,  4-H ) :   0.5162 B(  7-C ,  8-H ) :   0.8888
B(  7-C ,  9-H ) :   0.9070 B(  7-C , 10-H ) :   0.8829 B( 11-N , 12-H ) :   0.8166
B( 11-N , 13-H ) :   0.7957

MP2 TOTAL ENERGY:    -1092.818249341 Eh
FINAL SINGLE POINT ENERGY     -1092.818249340629

DIPOLE MOMENT
-------------
                                X             Y             Z
Electronic contribution:     -1.15466       2.84263       1.04741
Nuclear contribution   :     -0.62191      -3.05057      -0.64367
                        -----------------------------------------
Total Dipole Moment    :     -1.77657      -0.20794       0.40375
                        -----------------------------------------
Magnitude (a.u.)       :      1.83370
Magnitude (Debye)      :      4.66089

                             ****ORCA TERMINATED NORMALLY****
TOTAL RUN TIME: 0 days 0 hours 3 minutes 15 seconds 739 msec
