                         Program Version 4.0.1.2 - RELEASE -
|  1> ! MP2 6-311G(d) Opt NoFrozenCore ExtremeSCF
|  2>
|  3> %geom
|  4>  MaxIter 1
|  5>  inhess unit
|  6>  MaxStep 0.01
|  7>  Convergence tight
|  8>  Trust 0.1
|  9> end
| 10>
| 11> %mp2 MaxCore 5000
| 12> end
| 13>
| 14> *xyzfile -1 1 inp.xyz
| 15>
| 16>                          ****END OF INPUT****

CARTESIAN COORDINATES (ANGSTROEM)
---------------------------------
  C     -0.261302   -0.124397   -0.183961
  C     -0.238500   -0.093122    1.193464
  Cl     2.165571    0.138074   -0.996487
  Cl    -3.127339    0.437718    1.592144
  H     -1.580157    0.069777    1.231632
  H     -0.352364    0.832714   -0.686669
  H     -0.134706   -1.048442    1.711622
  C     -0.679990   -1.332474   -0.948612
  H     -0.246701   -1.309037   -1.946747
  H     -0.361120   -2.246586   -0.446062
  H     -1.774830   -1.339371   -1.033315
  N      0.299598    1.043061    1.895128
  H     -0.409000    1.757159    2.014946
  H      1.057484    1.413323    1.329641

 Total Charge           Charge          ....   -1
 Multiplicity           Mult            ....    1
 Number of Electrons    NEL             ....   68
 Basis Dimension        Dim             ....  148

ORBITAL ENERGIES
----------------

  NO   OCC          E(Eh)            E(eV)
   0   2.0000    -104.615234     -2846.7252
   1   2.0000    -104.577521     -2845.6990
   2   2.0000     -15.416553      -419.5057
   3   2.0000     -11.195345      -304.6408
   4   2.0000     -11.129316      -302.8441
   5   2.0000     -11.128573      -302.8239
   6   2.0000     -10.341924      -281.4181
   7   2.0000     -10.303301      -280.3671
   8   2.0000      -7.809391      -212.5043
   9   2.0000      -7.808089      -212.4689
  10   2.0000      -7.808085      -212.4688
  11   2.0000      -7.770381      -211.4428
  12   2.0000      -7.769866      -211.4288
  13   2.0000      -7.769818      -211.4275
  14   2.0000      -1.076163       -29.2839
  15   2.0000      -0.962318       -26.1860
  16   2.0000      -0.871140       -23.7049
  17   2.0000      -0.818371       -22.2690
  18   2.0000      -0.813841       -22.1457
  19   2.0000      -0.672524       -18.3003
  20   2.0000      -0.550877       -14.9901
  21   2.0000      -0.535086       -14.5604
  22   2.0000      -0.504532       -13.7290
  23   2.0000      -0.479190       -13.0394
  24   2.0000      -0.440305       -11.9813
  25   2.0000      -0.414085       -11.2678
  26   2.0000      -0.406095       -11.0504
  27   2.0000      -0.287616        -7.8264
  28   2.0000      -0.264028        -7.1846
  29   2.0000      -0.263892        -7.1809
  30   2.0000      -0.259429        -7.0594
  31   2.0000      -0.227035        -6.1779
  32   2.0000      -0.225710        -6.1419
  33   2.0000      -0.188389        -5.1263
  34   0.0000       0.220947         6.0123
  35   0.0000       0.276846         7.5334
  36   0.0000       0.290667         7.9094
  37   0.0000       0.311730         8.4826
  38   0.0000       0.342225         9.3124

MULLIKEN ATOMIC CHARGES
-----------------------
   0 C :   -0.116697
   1 C :   -0.224182
   2 Cl:   -0.744239
   3 Cl:   -0.635777
   4 H :    0.292419
   5 H :    0.246856
   6 H :    0.227367
   7 C :   -0.661102
   8 H :    0.258133
   9 H :    0.223424
  10 H :    0.235255
  11 N :   -0.792300
  12 H :    0.331321
  13 H :    0.359521
Sum of atomic charges:   -1.0000000

LOEWDIN ATOMIC CHARGES
----------------------
   0 C :   -0.020553
   1 C :   -0.235729
   2 Cl:   -0.695552
   3 Cl:   -0.558619
   4 H :    0.177887
   5 H :    0.124281
   6 H :    0.112115
   7 C :   -0.319519
   8 H :    0.131827
   9 H :    0.119486
  10 H :    0.128369
  11 N :   -0.367011
  12 H :    0.198187
  13 H :    0.204831

  Mayer bond orders larger than 0.1
B(  0-C ,  1-C ) :   1.3265 B(  0-C ,  2-Cl) :   0.3011 B(  0-C ,  5-H ) :   0.8870
B(  0-C ,  7-C ) :   0.9239 B(  1-C ,  4-H ) :   0.3663 B(  1-C ,  6-H ) :   0.8952
B(  1-C , 11-N ) :   0.9045 B(  3-Cl,  4-H ) :   0.4052 B(  7-C ,  8-H ) :   0.8875
B(  7-C ,  9-H ) :   0.9044 B(  7-C , 10-H ) :   0.8725 B( 11-N , 12-H ) :   0.8129
B( 11-N , 13-H ) :   0.7991

MP2 TOTAL ENERGY:    -1092.818385968 Eh
FINAL SINGLE POINT ENERGY     -1092.818385968258

DIPOLE MOMENT
-------------
                                X             Y             Z
Electronic contribution:     -0.35909       2.71353       0.54553
Nuclear contribution   :     -0.47199      -3.05899      -0.64006
                        -----------------------------------------
Total Dipole Moment    :     -0.83108      -0.34545      -0.09453
                        -----------------------------------------
Magnitude (a.u.)       :      0.90496
Magnitude (Debye)      :      2.30024

                             ****ORCA TERMINATED NORMALLY****
TOTAL RUN TIME: 0 days 0 hours 3 minutes 40 seconds 610 msec
